LAMMPS data file
 1506 atoms
 1005 bonds
 506 angles
 4 dihedrals
 2 impropers
 5 atom types
 4 bond types
 3 angle types
 1 dihedral types
 1 improper types
 0 15 xlo xhi
 0 15 ylo yhi
 0 15 zlo zhi
 0 0 0 xy xz yz

# Atom types
#
# 1 C_2
# 2 C_R
# 3 H_
# 4 H__HB
# 5 O_3

# Bond Coeffs
#
# 1 C_2*C_R
# 2 C_2*H_
# 3 C_R*H_
# 4 O_3*H__HB

# Angle Coeffs
#
# 1 C_2
# 2 C_R
# 3 O_3

# Dihedral Coeffs
#
# 1 E1

# Inversion Coeffs
#
# 1 1

 Masses

 1 12.01
 2 12.01
 3 1.01
 4 1.01
 5 16

 Atoms # full

1 1 1 0 4.14880769869593 9.12762626701948 7.18556466697406
2 1 2 0 4.26891950232151 10.2690631286516 6.38053583175303
3 1 3 0 4.4935583625477 8.22999978778257 6.83978412451033
4 1 3 0 3.72729570270595 9.15366954663697 8.11281499715643
5 1 3 0 4.71069522817379 10.1116748923906 5.46946523013406
6 1 3 0 3.84867800937446 11.5831817101014 6.69866961099344
7 2 4 0 0.300083266776055 12.9335277415253 11.0095025715418
8 2 5 0 1.26008326677606 12.9335277415253 11.0095025715418
9 2 4 0 1.50008326677606 12.0035277415253 11.0095025715418
10 3 4 0 9.38300207301043 2.14262115693651 9.08159513259307
11 3 5 0 10.3430020730104 2.14262115693651 9.08159513259307
12 3 4 0 10.5830020730104 1.21262115693651 9.08159513259307
13 4 4 0 11.4813646911364 12.8662881003134 14.0821345592849
14 4 5 0 12.4413646911364 12.8662881003134 14.0821345592849
15 4 4 0 12.6813646911364 11.9362881003134 14.0821345592849
16 5 4 0 11.8286108148471 7.5552714969404 6.24155716155656
17 5 5 0 12.7886108148471 7.5552714969404 6.24155716155656
18 5 4 0 13.0286108148471 6.6252714969404 6.24155716155656
19 6 4 0 4.84732601718977 1.09254462219775 4.78859059279785
20 6 5 0 5.80732601718977 1.09254462219775 4.78859059279785
21 6 4 0 6.04732601718977 0.162544622197747 4.78859059279785
22 7 4 0 1.39335001979023 11.3571075819805 9.94877155870199
23 7 5 0 2.35335001979023 11.3571075819805 9.94877155870199
24 7 4 0 2.59335001979023 10.4271075819805 9.94877155870199
25 8 4 0 6.7370820608642 14.027578422511 14.1223432892002
26 8 5 0 7.6970820608642 14.027578422511 14.1223432892002
27 8 4 0 7.9370820608642 13.097578422511 14.1223432892002
28 9 4 0 2.91321273587644 8.14784032217227 0.761530810268596
29 9 5 0 3.87321273587644 8.14784032217227 0.761530810268596
30 9 4 0 4.11321273587644 7.21784032217227 0.761530810268596
31 10 4 0 8.89915325839072 11.5291165739205 6.60944303381257
32 10 5 0 9.85915325839072 11.5291165739205 6.60944303381257
33 10 4 0 10.0991532583907 10.5991165739205 6.60944303381257
34 11 4 0 10.0513124330621 0.625611982950941 1.97694271802902
35 11 5 0 11.0113124330621 0.625611982950941 1.97694271802902
36 11 4 0 11.2513124330621 -0.304388017049059 1.97694271802902
37 12 4 0 0.473839326733723 7.54879401455633 9.55070546362549
38 12 5 0 1.43383932673372 7.54879401455633 9.55070546362549
39 12 4 0 1.67383932673372 6.61879401455633 9.55070546362549
40 13 4 0 -0.0494319987762719 11.651876143124 7.78923323960043
41 13 5 0 0.910568001223728 11.651876143124 7.78923323960043
42 13 4 0 1.15056800122373 10.721876143124 7.78923323960043
43 14 4 0 -0.563528143828735 12.4185359272547 14.6093126165215
44 14 5 0 0.396471856171265 12.4185359272547 14.6093126165215
45 14 4 0 0.636471856171265 11.4885359272547 14.6093126165215
46 15 4 0 3.92230387005955 1.06350189697929 2.30341992806643
47 15 5 0 4.88230387005955 1.06350189697929 2.30341992806643
48 15 4 0 5.12230387005955 0.133501896979287 2.30341992806643
49 16 4 0 2.7559809973184 5.26793223963119 2.67354989424348
50 16 5 0 3.7159809973184 5.26793223963119 2.67354989424348
51 16 4 0 3.9559809973184 4.33793223963119 2.67354989424348
52 17 4 0 10.7154303921573 9.05322474934161 5.00266131595708
53 17 5 0 11.6754303921573 9.05322474934161 5.00266131595708
54 17 4 0 11.9154303921573 8.12322474934161 5.00266131595708
55 18 4 0 11.9484831187595 1.12631307839416 7.95637321192771
56 18 5 0 12.9084831187595 1.12631307839416 7.95637321192771
57 18 4 0 13.1484831187595 0.19631307839416 7.95637321192771
58 19 4 0 11.9840889125783 9.54747096210718 8.33874786738306
59 19 5 0 12.9440889125783 9.54747096210718 8.33874786738306
60 19 4 0 13.1840889125783 8.61747096210718 8.33874786738306
61 20 4 0 13.5901436120924 4.75372889702208 12.09316205699
62 20 5 0 14.5501436120924 4.75372889702208 12.09316205699
63 20 4 0 14.7901436120924 3.82372889702208 12.09316205699
64 21 4 0 8.00826744220219 9.91885190987028 7.19712671474554
65 21 5 0 8.9682674422022 9.91885190987028 7.19712671474554
66 21 4 0 9.2082674422022 8.98885190987028 7.19712671474554
67 22 4 0 8.63401370516047 5.21187822375447 1.41646595089696
68 22 5 0 9.59401370516047 5.21187822375447 1.41646595089696
69 22 4 0 9.83401370516047 4.28187822375447 1.41646595089696
70 23 4 0 5.16551172637381 4.36938617768697 13.4586829750333
71 23 5 0 6.12551172637381 4.36938617768697 13.4586829750333
72 23 4 0 6.36551172637381 3.43938617768697 13.4586829750333
73 24 4 0 11.5343426672928 11.6725944894739 11.0128836496733
74 24 5 0 12.4943426672928 11.6725944894739 11.0128836496733
75 24 4 0 12.7343426672928 10.7425944894739 11.0128836496733
76 25 4 0 2.61079487783834 10.9762001472432 2.53039202769287
77 25 5 0 3.57079487783834 10.9762001472432 2.53039202769287
78 25 4 0 3.81079487783834 10.0462001472432 2.53039202769287
79 26 4 0 4.64873680888675 14.3864500957448 1.0466400696896
80 26 5 0 5.60873680888675 14.3864500957448 1.0466400696896
81 26 4 0 5.84873680888675 13.4564500957448 1.0466400696896
82 27 4 0 11.0050770237297 8.93782941549085 14.9561828537844
83 27 5 0 11.9650770237297 8.93782941549085 14.9561828537844
84 27 4 0 12.2050770237297 8.00782941549085 14.9561828537844
85 28 4 0 3.03268437084742 3.4596069021523 1.47086832323112
86 28 5 0 3.99268437084742 3.4596069021523 1.47086832323112
87 28 4 0 4.23268437084742 2.5296069021523 1.47086832323112
88 29 4 0 5.4800392167829 5.2151161040552 5.97099462873302
89 29 5 0 6.4400392167829 5.2151161040552 5.97099462873302
90 29 4 0 6.6800392167829 4.2851161040552 5.97099462873302
91 30 4 0 5.95468834086321 13.4106652710494 5.07727560703643
92 30 5 0 6.91468834086321 13.4106652710494 5.07727560703643
93 30 4 0 7.15468834086321 12.4806652710494 5.07727560703643
94 31 4 0 2.04477322680876 12.9229268133082 10.7555965567008
95 31 5 0 3.00477322680876 12.9229268133082 10.7555965567008
96 31 4 0 3.24477322680876 11.9929268133082 10.7555965567008
97 32 4 0 3.81188676503487 1.52837022015825 7.29030256974511
98 32 5 0 4.77188676503487 1.52837022015825 7.29030256974511
99 32 4 0 5.01188676503487 0.598370220158249 7.29030256974511
100 33 4 0 7.55362754847854 7.08161015570164 6.09043463249691
101 33 5 0 8.51362754847854 7.08161015570164 6.09043463249691
102 33 4 0 8.75362754847854 6.15161015570164 6.09043463249691
103 34 4 0 3.43588415809907 5.64481233404018 7.87727646064013
104 34 5 0 4.39588415809907 5.64481233404018 7.87727646064013
105 34 4 0 4.63588415809907 4.71481233404018 7.87727646064013
106 35 4 0 3.06180381841958 2.96925998217426 7.53300410695374
107 35 5 0 4.02180381841958 2.96925998217426 7.53300410695374
108 35 4 0 4.26180381841958 2.03925998217426 7.53300410695374
109 36 4 0 3.13391649906524 1.49516484624706 12.04247315065
110 36 5 0 4.09391649906524 1.49516484624706 12.04247315065
111 36 4 0 4.33391649906524 0.565164846247062 12.04247315065
112 37 4 0 13.0935800790042 10.4872470783908 0.276297724340111
113 37 5 0 14.0535800790042 10.4872470783908 0.276297724340111
114 37 4 0 14.2935800790042 9.55724707839079 0.276297724340111
115 38 4 0 11.8642151907273 2.15667524066754 5.94894268666394
116 38 5 0 12.8242151907273 2.15667524066754 5.94894268666394
117 38 4 0 13.0642151907273 1.22667524066754 5.94894268666394
118 39 4 0 6.06648595581763 13.9960609403811 3.70981208863668
119 39 5 0 7.02648595581763 13.9960609403811 3.70981208863668
120 39 4 0 7.26648595581763 13.0660609403811 3.70981208863668
121 40 4 0 8.38437338403426 6.67555787408724 11.348534465069
122 40 5 0 9.34437338403426 6.67555787408724 11.348534465069
123 40 4 0 9.58437338403426 5.74555787408724 11.348534465069
124 41 4 0 1.66620004383847 3.81706608500332 8.13781787641346
125 41 5 0 2.62620004383847 3.81706608500332 8.13781787641346
126 41 4 0 2.86620004383847 2.88706608500332 8.13781787641346
127 42 4 0 5.88278271418065 10.8523510458786 10.8249372162391
128 42 5 0 6.84278271418065 10.8523510458786 10.8249372162391
129 42 4 0 7.08278271418065 9.9223510458786 10.8249372162391
130 43 4 0 7.7332427159138 4.9646785661485 13.6201147525571
131 43 5 0 8.6932427159138 4.9646785661485 13.6201147525571
132 43 4 0 8.9332427159138 4.0346785661485 13.6201147525571
133 44 4 0 11.972041672999 5.21266186883673 13.3315927942749
134 44 5 0 12.932041672999 5.21266186883673 13.3315927942749
135 44 4 0 13.172041672999 4.28266186883673 13.3315927942749
136 45 4 0 13.4936128933635 8.58583045233041 11.1549024749547
137 45 5 0 14.4536128933635 8.58583045233041 11.1549024749547
138 45 4 0 14.6936128933635 7.65583045233041 11.1549024749547
139 46 4 0 -0.0321025920845568 2.10114985396154 3.36624318966642
140 46 5 0 0.927897407915443 2.10114985396154 3.36624318966642
141 46 4 0 1.16789740791544 1.17114985396154 3.36624318966642
142 47 4 0 0.489052344784141 2.84069595899433 3.05870823911391
143 47 5 0 1.44905234478414 2.84069595899433 3.05870823911391
144 47 4 0 1.68905234478414 1.91069595899433 3.05870823911391
145 48 4 0 8.10444055052474 1.98199114337564 6.52160614030436
146 48 5 0 9.06444055052474 1.98199114337564 6.52160614030436
147 48 4 0 9.30444055052474 1.05199114337564 6.52160614030436
148 49 4 0 6.9196744872909 4.49986603501253 8.69695800589398
149 49 5 0 7.8796744872909 4.49986603501253 8.69695800589398
150 49 4 0 8.1196744872909 3.56986603501253 8.69695800589398
151 50 4 0 1.77639131245203 11.7591369447205 7.72043157485314
152 50 5 0 2.73639131245203 11.7591369447205 7.72043157485314
153 50 4 0 2.97639131245203 10.8291369447205 7.72043157485314
154 51 4 0 7.51402769397944 10.1964403110929 10.7562338502612
155 51 5 0 8.47402769397944 10.1964403110929 10.7562338502612
156 51 4 0 8.71402769397944 9.26644031109288 10.7562338502612
157 52 4 0 2.03035607395694 8.99543833377771 5.09773532976396
158 52 5 0 2.99035607395694 8.99543833377771 5.09773532976396
159 52 4 0 3.23035607395694 8.06543833377771 5.09773532976396
160 53 4 0 7.77843511590734 8.5974131668359 7.70998053252697
161 53 5 0 8.73843511590734 8.5974131668359 7.70998053252697
162 53 4 0 8.97843511590734 7.6674131668359 7.70998053252697
163 54 4 0 -0.3525790125411 12.7935089640692 1.57499376568012
164 54 5 0 0.6074209874589 12.7935089640692 1.57499376568012
165 54 4 0 0.8474209874589 11.8635089640692 1.57499376568012
166 55 4 0 2.99568778529763 6.69378259376623 6.09147289185785
167 55 5 0 3.95568778529763 6.69378259376623 6.09147289185785
168 55 4 0 4.19568778529763 5.76378259376623 6.09147289185785
169 56 4 0 5.33252703186125 3.65248697967269 11.7674542323221
170 56 5 0 6.29252703186125 3.65248697967269 11.7674542323221
171 56 4 0 6.53252703186125 2.72248697967269 11.7674542323221
172 57 4 0 5.94118141030893 14.2457519161422 7.48802534071729
173 57 5 0 6.90118141030893 14.2457519161422 7.48802534071729
174 57 4 0 7.14118141030893 13.3157519161422 7.48802534071729
175 58 4 0 6.80096727141179 4.2344295808021 10.8600053424016
176 58 5 0 7.76096727141179 4.2344295808021 10.8600053424016
177 58 4 0 8.00096727141179 3.3044295808021 10.8600053424016
178 59 4 0 9.46741043284535 14.1735105628055 1.85064678895287
179 59 5 0 10.4274104328454 14.1735105628055 1.85064678895287
180 59 4 0 10.6674104328454 13.2435105628055 1.85064678895287
181 60 4 0 10.6812915047351 2.61391540681012 11.604605410248
182 60 5 0 11.6412915047351 2.61391540681012 11.604605410248
183 60 4 0 11.8812915047351 1.68391540681012 11.604605410248
184 61 4 0 10.8966997805703 4.61063886800781 12.6300221832935
185 61 5 0 11.8566997805703 4.61063886800781 12.6300221832935
186 61 4 0 12.0966997805703 3.68063886800781 12.6300221832935
187 62 4 0 6.66737315637991 6.58007186179981 4.12064959877171
188 62 5 0 7.62737315637991 6.58007186179981 4.12064959877171
189 62 4 0 7.86737315637991 5.65007186179981 4.12064959877171
190 63 4 0 5.16920221896842 1.19980381027795 14.4310131878592
191 63 5 0 6.12920221896842 1.19980381027795 14.4310131878592
192 63 4 0 6.36920221896842 0.269803810277954 14.4310131878592
193 64 4 0 -0.184806950418279 12.2341807132494 14.5004543743562
194 64 5 0 0.775193049581721 12.2341807132494 14.5004543743562
195 64 4 0 1.01519304958172 11.3041807132494 14.5004543743562
196 65 4 0 11.9873269570246 2.02022195019759 13.5720474994741
197 65 5 0 12.9473269570246 2.02022195019759 13.5720474994741
198 65 4 0 13.1873269570246 1.09022195019759 13.5720474994741
199 66 4 0 10.7039977661055 0.322481149751693 8.43334605102427
200 66 5 0 11.6639977661055 0.322481149751693 8.43334605102427
201 66 4 0 11.9039977661055 -0.607518850248307 8.43334605102427
202 67 4 0 3.29813022675924 3.64434113534167 9.79010447161272
203 67 5 0 4.25813022675924 3.64434113534167 9.79010447161272
204 67 4 0 4.49813022675924 2.71434113534167 9.79010447161272
205 68 4 0 6.03673857447691 2.45072592672892 4.60934940143488
206 68 5 0 6.99673857447691 2.45072592672892 4.60934940143488
207 68 4 0 7.23673857447691 1.52072592672892 4.60934940143488
208 69 4 0 4.41678117538802 14.5822590023186 13.0874283949379
209 69 5 0 5.37678117538802 14.5822590023186 13.0874283949379
210 69 4 0 5.61678117538802 13.6522590023186 13.0874283949379
211 70 4 0 10.958389281733 12.7604477973096 4.02843818999827
212 70 5 0 11.918389281733 12.7604477973096 4.02843818999827
213 70 4 0 12.158389281733 11.8304477973096 4.02843818999827
214 71 4 0 8.02922521761618 12.8243373035826 9.46025775745511
215 71 5 0 8.98922521761619 12.8243373035826 9.46025775745511
216 71 4 0 9.22922521761619 11.8943373035826 9.46025775745511
217 72 4 0 7.25699547023512 5.66911896615289 8.68327291449532
218 72 5 0 8.21699547023512 5.66911896615289 8.68327291449532
219 72 4 0 8.45699547023512 4.73911896615289 8.68327291449532
220 73 4 0 13.8481140536908 13.3857929966785 7.36045388854109
221 73 5 0 14.8081140536908 13.3857929966785 7.36045388854109
222 73 4 0 15.0481140536908 12.4557929966785 7.36045388854109
223 74 4 0 9.38227480321191 9.69047948409803 3.19763721548952
224 74 5 0 10.3422748032119 9.69047948409803 3.19763721548952
225 74 4 0 10.5822748032119 8.76047948409803 3.19763721548952
226 75 4 0 11.236222623121 2.2301810634695 8.37232162593864
227 75 5 0 12.196222623121 2.2301810634695 8.37232162593864
228 75 4 0 12.436222623121 1.3001810634695 8.37232162593864
229 76 4 0 11.5587829104345 0.806603797655553 4.96886101551354
230 76 5 0 12.5187829104345 0.806603797655553 4.96886101551354
231 76 4 0 12.7587829104345 -0.123396202344447 4.96886101551354
232 77 4 0 0.227748532053083 5.02456028637476 1.87386456993409
233 77 5 0 1.18774853205308 5.02456028637476 1.87386456993409
234 77 4 0 1.42774853205308 4.09456028637476 1.87386456993409
235 78 4 0 0.468645194051787 9.40519108245149 4.50218528858386
236 78 5 0 1.42864519405179 9.40519108245149 4.50218528858386
237 78 4 0 1.66864519405179 8.47519108245149 4.50218528858386
238 79 4 0 12.1235059811454 10.1111131689418 13.3108400891069
239 79 5 0 13.0835059811454 10.1111131689418 13.3108400891069
240 79 4 0 13.3235059811454 9.18111316894181 13.3108400891069
241 80 4 0 13.1822011624183 11.3669466126617 2.18602862209082
242 80 5 0 14.1422011624184 11.3669466126617 2.18602862209082
243 80 4 0 14.3822011624184 10.4369466126617 2.18602862209082
244 81 4 0 0.415095753706992 12.9941429655906 3.57603665906936
245 81 5 0 1.37509575370699 12.9941429655906 3.57603665906936
246 81 4 0 1.61509575370699 12.0641429655906 3.57603665906936
247 82 4 0 5.33912620550953 12.4809994238336 7.43138025747612
248 82 5 0 6.29912620550953 12.4809994238336 7.43138025747612
249 82 4 0 6.53912620550953 11.5509994238336 7.43138025747612
250 83 4 0 0.0524697107914835 9.47540147271007 3.5085276060272
251 83 5 0 1.01246971079148 9.47540147271007 3.5085276060272
252 83 4 0 1.25246971079148 8.54540147271007 3.5085276060272
253 84 4 0 5.3840709761437 11.9375852534454 13.919327192707
254 84 5 0 6.3440709761437 11.9375852534454 13.919327192707
255 84 4 0 6.5840709761437 11.0075852534454 13.919327192707
256 85 4 0 12.197448040098 15.2190456636623 14.9733604991343
257 85 5 0 13.157448040098 15.2190456636623 14.9733604991343
258 85 4 0 13.397448040098 14.2890456636623 14.9733604991343
259 86 4 0 11.1265869035572 7.29990997159854 6.61537855630741
260 86 5 0 12.0865869035572 7.29990997159854 6.61537855630741
261 86 4 0 12.3265869035572 6.36990997159854 6.61537855630741
262 87 4 0 13.6040550986957 8.72047054156661 6.45438300794922
263 87 5 0 14.5640550986957 8.72047054156661 6.45438300794922
264 87 4 0 14.8040550986957 7.79047054156661 6.45438300794922
265 88 4 0 0.651149439364672 1.6531039894931 2.9949899611529
266 88 5 0 1.61114943936467 1.6531039894931 2.9949899611529
267 88 4 0 1.85114943936467 0.723103989493102 2.9949899611529
268 89 4 0 12.5174041783623 0.681663389960304 12.2235424246173
269 89 5 0 13.4774041783623 0.681663389960304 12.2235424246173
270 89 4 0 13.7174041783623 -0.248336610039696 12.2235424246173
271 90 4 0 5.90036557216197 14.089654011596 8.05332668940537
272 90 5 0 6.86036557216197 14.089654011596 8.05332668940537
273 90 4 0 7.10036557216197 13.159654011596 8.05332668940537
274 91 4 0 11.7730272926576 3.2919881520234 3.12483587418683
275 91 5 0 12.7330272926576 3.2919881520234 3.12483587418683
276 91 4 0 12.9730272926576 2.3619881520234 3.12483587418683
277 92 4 0 11.9668716592435 4.9081654280331 1.92824706318788
278 92 5 0 12.9268716592435 4.9081654280331 1.92824706318788
279 92 4 0 13.1668716592435 3.9781654280331 1.92824706318788
280 93 4 0 1.05367050549947 2.08200159872882 5.6167053419631
281 93 5 0 2.01367050549947 2.08200159872882 5.6167053419631
282 93 4 0 2.25367050549947 1.15200159872882 5.6167053419631
283 94 4 0 11.0525203349255 2.33230471535586 9.2650970548857
284 94 5 0 12.0125203349255 2.33230471535586 9.2650970548857
285 94 4 0 12.2525203349255 1.40230471535586 9.2650970548857
286 95 4 0 2.06421144699678 3.2592690297775 4.98798039858229
287 95 5 0 3.02421144699678 3.2592690297775 4.98798039858229
288 95 4 0 3.26421144699678 2.3292690297775 4.98798039858229
289 96 4 0 -0.0711461326852441 5.30393045320176 2.88068929687142
290 96 5 0 0.888853867314756 5.30393045320176 2.88068929687142
291 96 4 0 1.12885386731476 4.37393045320176 2.88068929687142
292 97 4 0 13.9772746204119 12.2651893963944 8.77813799190335
293 97 5 0 14.9372746204119 12.2651893963944 8.77813799190335
294 97 4 0 15.1772746204119 11.3351893963944 8.77813799190335
295 98 4 0 11.7641065169312 7.14565998333506 14.7657799324952
296 98 5 0 12.7241065169312 7.14565998333506 14.7657799324952
297 98 4 0 12.9641065169312 6.21565998333506 14.7657799324952
298 99 4 0 6.50158175543882 15.2750702241343 1.17152129416354
299 99 5 0 7.46158175543882 15.2750702241343 1.17152129416354
300 99 4 0 7.70158175543882 14.3450702241343 1.17152129416354
301 100 4 0 5.83211600940675 7.5693156027142 13.8088669243734
302 100 5 0 6.79211600940675 7.5693156027142 13.8088669243734
303 100 4 0 7.03211600940675 6.6393156027142 13.8088669243734
304 101 4 0 5.66881542719901 7.0737316591572 7.64701756532304
305 101 5 0 6.62881542719901 7.0737316591572 7.64701756532304
306 101 4 0 6.86881542719901 6.1437316591572 7.64701756532304
307 102 4 0 3.74885710232891 6.91622834344394 11.3293585181236
308 102 5 0 4.70885710232891 6.91622834344394 11.3293585181236
309 102 4 0 4.94885710232891 5.98622834344394 11.3293585181236
310 103 4 0 11.7673900506645 6.73038918682374 1.32712610182352
311 103 5 0 12.7273900506645 6.73038918682374 1.32712610182352
312 103 4 0 12.9673900506645 5.80038918682374 1.32712610182352
313 104 4 0 5.44258856956847 13.3752243108489 6.37189981061965
314 104 5 0 6.40258856956847 13.3752243108489 6.37189981061965
315 104 4 0 6.64258856956847 12.4452243108489 6.37189981061965
316 105 4 0 3.81044627211057 12.2835337572638 1.62773710093461
317 105 5 0 4.77044627211057 12.2835337572638 1.62773710093461
318 105 4 0 5.01044627211057 11.3535337572638 1.62773710093461
319 106 4 0 3.11840167662129 11.6232767542265 7.69312324351631
320 106 5 0 4.07840167662129 11.6232767542265 7.69312324351631
321 106 4 0 4.31840167662129 10.6932767542265 7.69312324351631
322 107 4 0 4.27391716090031 9.30698830326088 0.718454006128013
323 107 5 0 5.23391716090031 9.30698830326088 0.718454006128013
324 107 4 0 5.47391716090031 8.37698830326088 0.718454006128013
325 108 4 0 9.90575076590292 7.70859485533088 9.04897839878686
326 108 5 0 10.8657507659029 7.70859485533088 9.04897839878686
327 108 4 0 11.1057507659029 6.77859485533088 9.04897839878686
328 109 4 0 6.89620323755778 5.17020234995522 2.26241307682358
329 109 5 0 7.85620323755778 5.17020234995522 2.26241307682358
330 109 4 0 8.09620323755778 4.24020234995522 2.26241307682358
331 110 4 0 13.4738418138307 8.52822565165348 11.2126903817989
332 110 5 0 14.4338418138307 8.52822565165348 11.2126903817989
333 110 4 0 14.6738418138307 7.59822565165348 11.2126903817989
334 111 4 0 6.28019549229182 12.6393227516115 12.3916506429669
335 111 5 0 7.24019549229182 12.6393227516115 12.3916506429669
336 111 4 0 7.48019549229182 11.7093227516115 12.3916506429669
337 112 4 0 9.62967339481227 2.72015277802944 13.5903475165833
338 112 5 0 10.5896733948123 2.72015277802944 13.5903475165833
339 112 4 0 10.8296733948123 1.79015277802944 13.5903475165833
340 113 4 0 5.46182960548438 12.3649534412567 1.47183523164131
341 113 5 0 6.42182960548438 12.3649534412567 1.47183523164131
342 113 4 0 6.66182960548438 11.4349534412567 1.47183523164131
343 114 4 0 -0.046113173738122 6.37616724515334 7.73545038420707
344 114 5 0 0.913886826261878 6.37616724515334 7.73545038420707
345 114 4 0 1.15388682626188 5.44616724515334 7.73545038420707
346 115 4 0 2.71348592170514 1.09387841000222 14.4884163758252
347 115 5 0 3.67348592170514 1.09387841000222 14.4884163758252
348 115 4 0 3.91348592170514 0.163878410002217 14.4884163758252
349 116 4 0 0.767812127452344 11.8280049312767 3.17269034567289
350 116 5 0 1.72781212745234 11.8280049312767 3.17269034567289
351 116 4 0 1.96781212745234 10.8980049312767 3.17269034567289
352 117 4 0 0.913007512427866 10.388219093848 9.04925950337201
353 117 5 0 1.87300751242787 10.388219093848 9.04925950337201
354 117 4 0 2.11300751242787 9.45821909384802 9.04925950337201
355 118 4 0 -0.611766810324043 14.0088974828273 8.30325537244789
356 118 5 0 0.348233189675957 14.0088974828273 8.30325537244789
357 118 4 0 0.588233189675957 13.0788974828273 8.30325537244789
358 119 4 0 0.185256264377385 6.315176641047 10.2014907065313
359 119 5 0 1.14525626437739 6.315176641047 10.2014907065313
360 119 4 0 1.38525626437739 5.385176641047 10.2014907065313
361 120 4 0 8.19630161320791 2.32691775000654 6.24856775044464
362 120 5 0 9.15630161320791 2.32691775000654 6.24856775044464
363 120 4 0 9.39630161320791 1.39691775000654 6.24856775044464
364 121 4 0 -0.030947178164497 13.7359775711689 4.38810054212809
365 121 5 0 0.929052821835503 13.7359775711689 4.38810054212809
366 121 4 0 1.1690528218355 12.8059775711689 4.38810054212809
367 122 4 0 10.8850794906914 7.87070387666114 9.12705840775743
368 122 5 0 11.8450794906914 7.87070387666114 9.12705840775743
369 122 4 0 12.0850794906914 6.94070387666114 9.12705840775743
370 123 4 0 1.08804684874602 2.9906013379246 3.62376207020134
371 123 5 0 2.04804684874602 2.9906013379246 3.62376207020134
372 123 4 0 2.28804684874602 2.0606013379246 3.62376207020134
373 124 4 0 13.6388723964058 6.86168447410688 5.04467164864764
374 124 5 0 14.5988723964058 6.86168447410688 5.04467164864764
375 124 4 0 14.8388723964058 5.93168447410688 5.04467164864764
376 125 4 0 11.1128184401616 12.8793272263743 8.92144363839179
377 125 5 0 12.0728184401616 12.8793272263743 8.92144363839179
378 125 4 0 12.3128184401616 11.9493272263743 8.92144363839179
379 126 4 0 9.52059214862063 5.63390647567809 2.83854994922876
380 126 5 0 10.4805921486206 5.63390647567809 2.83854994922876
381 126 4 0 10.7205921486206 4.70390647567809 2.83854994922876
382 127 4 0 5.21583689653315 1.72792438109405 8.62746483064257
383 127 5 0 6.17583689653315 1.72792438109405 8.62746483064257
384 127 4 0 6.41583689653315 0.797924381094053 8.62746483064257
385 128 4 0 1.49177517087199 14.7446383400261 12.5933441799134
386 128 5 0 2.45177517087199 14.7446383400261 12.5933441799134
387 128 4 0 2.69177517087199 13.8146383400261 12.5933441799134
388 129 4 0 9.11087427914143 6.56533384969458 8.16563653293997
389 129 5 0 10.0708742791414 6.56533384969458 8.16563653293997
390 129 4 0 10.3108742791414 5.63533384969458 8.16563653293997
391 130 4 0 8.17520406257361 8.56991096207872 4.58363811252639
392 130 5 0 9.13520406257361 8.56991096207872 4.58363811252639
393 130 4 0 9.37520406257361 7.63991096207872 4.58363811252639
394 131 4 0 7.81477513650432 10.8658012938127 14.9915278377011
395 131 5 0 8.77477513650432 10.8658012938127 14.9915278377011
396 131 4 0 9.01477513650432 9.93580129381269 14.9915278377011
397 132 4 0 10.9582581643201 12.3656417352054 12.7139666781295
398 132 5 0 11.9182581643201 12.3656417352054 12.7139666781295
399 132 4 0 12.1582581643201 11.4356417352054 12.7139666781295
400 133 4 0 10.9042320591118 1.66087777161971 7.87983017158695
401 133 5 0 11.8642320591118 1.66087777161971 7.87983017158695
402 133 4 0 12.1042320591118 0.730877771619707 7.87983017158695
403 134 4 0 10.0971008632053 1.89383555244654 14.0009943314362
404 134 5 0 11.0571008632053 1.89383555244654 14.0009943314362
405 134 4 0 11.2971008632053 0.963835552446544 14.0009943314362
406 135 4 0 1.91169117970392 1.35432640597224 6.69920866959728
407 135 5 0 2.87169117970392 1.35432640597224 6.69920866959728
408 135 4 0 3.11169117970392 0.424326405972242 6.69920866959728
409 136 4 0 10.3199544413667 8.02038250764832 8.0071234703064
410 136 5 0 11.2799544413667 8.02038250764832 8.0071234703064
411 136 4 0 11.5199544413667 7.09038250764832 8.0071234703064
412 137 4 0 8.72444350898266 2.80819935532287 12.938254235778
413 137 5 0 9.68444350898266 2.80819935532287 12.938254235778
414 137 4 0 9.92444350898266 1.87819935532287 12.938254235778
415 138 4 0 8.16659898424521 14.09608994768 1.29131451481953
416 138 5 0 9.12659898424521 14.09608994768 1.29131451481953
417 138 4 0 9.36659898424521 13.16608994768 1.29131451481953
418 139 4 0 7.92469908527099 13.2952747009136 0.657752155093476
419 139 5 0 8.88469908527099 13.2952747009136 0.657752155093476
420 139 4 0 9.12469908527099 12.3652747009136 0.657752155093476
421 140 4 0 1.10487647398375 1.77073592244647 1.88183509977534
422 140 5 0 2.06487647398375 1.77073592244647 1.88183509977534
423 140 4 0 2.30487647398375 0.840735922446474 1.88183509977534
424 141 4 0 7.35487752987072 9.81157605926506 14.7804489475675
425 141 5 0 8.31487752987072 9.81157605926506 14.7804489475675
426 141 4 0 8.55487752987072 8.88157605926506 14.7804489475675
427 142 4 0 13.9658389140107 3.61479642492719 6.51144804898649
428 142 5 0 14.9258389140107 3.61479642492719 6.51144804898649
429 142 4 0 15.1658389140107 2.68479642492719 6.51144804898649
430 143 4 0 11.9839976755623 12.8562134962436 5.2899551927112
431 143 5 0 12.9439976755623 12.8562134962436 5.2899551927112
432 143 4 0 13.1839976755623 11.9262134962436 5.2899551927112
433 144 4 0 7.72534468604252 9.31059671956115 9.47746049263515
434 144 5 0 8.68534468604252 9.31059671956115 9.47746049263515
435 144 4 0 8.92534468604252 8.38059671956115 9.47746049263515
436 145 4 0 2.35850352837704 3.07073710992932 8.43761773430742
437 145 5 0 3.31850352837704 3.07073710992932 8.43761773430742
438 145 4 0 3.55850352837704 2.14073710992932 8.43761773430742
439 146 4 0 2.26014731146395 15.2533208757546 14.9791535187978
440 146 5 0 3.22014731146395 15.2533208757546 14.9791535187978
441 146 4 0 3.46014731146395 14.3233208757546 14.9791535187978
442 147 4 0 4.27827810446732 11.3288240616117 3.12577717239037
443 147 5 0 5.23827810446732 11.3288240616117 3.12577717239037
444 147 4 0 5.47827810446732 10.3988240616117 3.12577717239037
445 148 4 0 1.24821339894086 10.0995337617956 5.55563612258993
446 148 5 0 2.20821339894086 10.0995337617956 5.55563612258993
447 148 4 0 2.44821339894086 9.16953376179561 5.55563612258993
448 149 4 0 6.65458189018071 4.46854723541997 0.425288323312998
449 149 5 0 7.61458189018071 4.46854723541997 0.425288323312998
450 149 4 0 7.85458189018071 3.53854723541997 0.425288323312998
451 150 4 0 6.55850184543058 4.42950769717805 14.7442291653715
452 150 5 0 7.51850184543058 4.42950769717805 14.7442291653715
453 150 4 0 7.75850184543058 3.49950769717805 14.7442291653715
454 151 4 0 8.47317274005152 5.93963732634671 13.4250607586
455 151 5 0 9.43317274005152 5.93963732634671 13.4250607586
456 151 4 0 9.67317274005152 5.00963732634671 13.4250607586
457 152 4 0 5.14207624641247 13.5069432230107 13.7537122762296
458 152 5 0 6.10207624641247 13.5069432230107 13.7537122762296
459 152 4 0 6.34207624641247 12.5769432230107 13.7537122762296
460 153 4 0 3.64442969483323 4.99981453333981 14.8414147726726
461 153 5 0 4.60442969483323 4.99981453333981 14.8414147726726
462 153 4 0 4.84442969483323 4.06981453333981 14.8414147726726
463 154 4 0 9.71924635509029 7.77242851018906 0.245746693108231
464 154 5 0 10.6792463550903 7.77242851018906 0.245746693108231
465 154 4 0 10.9192463550903 6.84242851018906 0.245746693108231
466 155 4 0 13.1319021542743 13.0827949223481 13.1015606119763
467 155 5 0 14.0919021542743 13.0827949223481 13.1015606119763
468 155 4 0 14.3319021542743 12.1527949223481 13.1015606119763
469 156 4 0 12.7080983149074 14.3075590468384 6.81787403882481
470 156 5 0 13.6680983149074 14.3075590468384 6.81787403882481
471 156 4 0 13.9080983149074 13.3775590468384 6.81787403882481
472 157 4 0 6.3247628328111 0.67355035030283 14.6204732183833
473 157 5 0 7.2847628328111 0.67355035030283 14.6204732183833
474 157 4 0 7.5247628328111 -0.25644964969717 14.6204732183833
475 158 4 0 9.34476086215116 5.69407680229284 11.4733129378874
476 158 5 0 10.3047608621512 5.69407680229284 11.4733129378874