LAMMPS (29 Sep 2021 - Update 1)
Reading data file ...
  triclinic box = (0.0000000 0.0000000 0.0000000) to (15.000000 15.000000 15.000000) with tilt (0.0000000 0.0000000 0.0000000)
  2 by 4 by 4 MPI processor grid
  reading atoms ...
  1506 atoms
  scanning bonds ...
  3 = max bonds/atom
  scanning angles ...
  3 = max angles/atom
  scanning dihedrals ...
  4 = max dihedrals/atom
  scanning impropers ...
  1 = max impropers/atom
  reading bonds ...
  1005 bonds
  reading angles ...
  506 angles
  reading dihedrals ...
  4 dihedrals
  reading impropers ...
  2 impropers
Finding 1-2 1-3 1-4 neighbors ...
  special bond factors lj:    0        0        1       
  special bond factors coul:  0        0        1       
     3 = max # of 1-2 neighbors
     2 = max # of 1-3 neighbors
     5 = max # of special neighbors
  special bonds CPU = 0.002 seconds
  read_data CPU = 0.017 seconds
WARNING: Using 'neigh_modify every 1 delay 0 check yes' setting during minimization (../min.cpp:188)
Neighbor list info ...
  update every 1 steps, delay 0 steps, check yes
  max neighbors/atom: 10000, page size: 100000
  master list distance cutoff = 13
  ghost atom cutoff = 13
  binsize = 6.5, bins = 3 3 3
  3 neighbor lists, perpetual/occasional/extra = 3 0 0
  (1) pair hbond/dreiding/lj, perpetual, skip from (3)
      attributes: full, newton on
      pair build: skip
      stencil: none
      bin: none
  (2) pair lj/cut, perpetual, half/full from (3)
      attributes: half, newton on
      pair build: halffull/newton
      stencil: none
      bin: none
  (3) neighbor class addition, perpetual
      attributes: full, newton on
      pair build: full/bin
      stencil: full/bin/3d
      bin: standard
Setting up cg style minimization ...
  Unit style    : real
  Current step  : 0
WARNING: Energy due to 1 extra global DOFs will be included in minimizer energies
Per MPI rank memory allocation (min/avg/max) = 11.72 | 12.04 | 12.50 Mbytes
Step Temp E_pair E_mol TotEng Press Volume 
       0            0 7.6416957e+18    194.22774 7.6416957e+18 6.210121e+20         3375 
    5095            0    -1008.155    18.153709   -990.00126    92.460148    38776.854 
Loop time of 4.32877 on 32 procs for 5095 steps with 1506 atoms

100.0% CPU use with 32 MPI tasks x no OpenMP threads

Minimization stats:
  Stopping criterion = energy tolerance
  Energy initial, next-to-last, final = 
    7.64169568971479e+18  -989.388487261609  -989.484956159912
  Force two-norm initial, final = 1.5330415e+21 101.10095
  Force max component initial, final = 7.4480279e+20 68.765196
  Final line search alpha, max atom move = 1.3533339e-05 0.00093062272
  Iterations, force evaluations = 5095 5099

MPI task timing breakdown:
Section |  min time  |  avg time  |  max time  |%varavg| %total
---------------------------------------------------------------
Pair    | 1.5259     | 2.4739     | 3.632      |  36.6 | 57.15
Bond    | 0.0071733  | 0.010398   | 0.015847   |   2.1 |  0.24
Neigh   | 0.092811   | 0.093097   | 0.093304   |   0.0 |  2.15
Comm    | 0.26159    | 1.422      | 2.3707     |  48.4 | 32.85
Output  | 0          | 0          | 0          |   0.0 |  0.00
Modify  | 0          | 0          | 0          |   0.0 |  0.00
Other   |            | 0.3294     |            |       |  7.61

Nlocal:        47.0625 ave          65 max          33 min
Histogram: 5 3 2 4 4 6 2 2 3 1
Nghost:        1941.88 ave        1995 max        1891 min
Histogram: 3 3 6 3 1 3 2 4 4 3
Neighs:        4803.78 ave        6862 max        3057 min
Histogram: 3 4 3 5 2 3 6 3 2 1

Total # of neighbors = 153721
Ave neighs/atom = 102.07238
Ave special neighs/atom = 2.0066401
Neighbor list builds = 92
Dangerous builds = 0
1500 atoms in group WAT
6 atoms in group MOL
Neighbor list info ...
  update every 2 steps, delay 10 steps, check yes
  max neighbors/atom: 10000, page size: 100000
  master list distance cutoff = 13
  ghost atom cutoff = 13
  binsize = 6.5, bins = 6 6 6
  4 neighbor lists, perpetual/occasional/extra = 3 1 0
  (1) pair hbond/dreiding/lj, perpetual, skip from (4)
      attributes: full, newton on
      pair build: skip
      stencil: none
      bin: none
  (2) pair lj/cut, perpetual, half/full from (4)
      attributes: half, newton on
      pair build: halffull/newton
      stencil: none
      bin: none
  (3) compute group/group, occasional, copy from (2)
      attributes: half, newton on
      pair build: copy
      stencil: none
      bin: none
  (4) neighbor class addition, perpetual
      attributes: full, newton on
      pair build: full/bin
      stencil: full/bin/3d
      bin: standard
Setting up Verlet run ...
  Unit style    : real
  Current step  : 5095
  Time step     : 1
Per MPI rank memory allocation (min/avg/max) = 10.57 | 10.60 | 10.96 Mbytes
Step Temp E_pair E_mol TotEng Press Volume 
    5095          300    -1008.155    18.153709    355.83448    1679.0049    38776.854 
    5100    327.79879   -971.87747    218.20206    716.86902    183.16898    38776.854 
    5200      293.005   -1058.0108     184.7385    441.18304    -650.5999    38776.854 
    5300    296.68972   -1039.5181    129.16991     420.6372    244.87117    38776.854 
    5400    301.56534   -1042.1858     175.9431    486.61532    560.69414    38776.854 
    5500    304.72141   -1006.4066    190.05248    550.66244    323.88193    38776.854 
    5600    292.68216   -1073.1519    165.71836    405.57355    434.54955    38776.854 
    5700    308.36634   -1102.0171    162.54231    443.89338    984.09063    38776.854 
    5800    298.24815    -1083.029    162.72451    417.67221    548.35691    38776.854 
    5900    296.24501   -1068.5366      164.792    425.24582    468.27413    38776.854 
    6000     300.2278   -1068.1469     166.0091    444.71991     491.5269    38776.854 
    6100    308.29096   -1065.0391    177.18246    495.17339    655.28742    38776.854 
    6200    302.37241   -1063.4656     184.8979    477.91094    505.94757    38776.854 
    6300    296.36478   -1023.5574    174.89682    480.86714    454.08525    38776.854 
    6400    301.01361   -988.59696    198.29209    560.07805    675.56512    38776.854 
    6500    300.29811   -1016.0971    178.06297    509.13902    658.56907    38776.854 
    6600    308.69965   -1052.7223    179.83479    511.97595    780.46761    38776.854 
    6700    299.37269   -1034.0663    187.98519    496.94046    594.28289    38776.854 
    6800    296.61945    -1062.035    195.64208    464.27725    587.25394    38776.854 
    6900    296.42778   -1067.8387    190.42508     452.3967     489.0585    38776.854 
    7000    297.06384   -1089.4042    188.54259    431.80212    304.70384    38776.854 
    7100    289.56115   -1080.7232    204.70772    422.99035    442.00981    38776.854 
    7200    298.64076   -1127.7409    185.49035    397.48741    598.54028    38776.854 
    7300    302.38104   -1086.5393    196.00755     465.9856    633.52795    38776.854 
    7400    304.30969   -1092.9539    200.65231    472.86791    524.55463    38776.854 
    7500    301.05201   -1090.0608    194.77589    455.27023    521.92106    38776.854 
    7600    298.97849   -1073.8969    195.99746    463.35367    319.22268    38776.854 
    7700    304.45355   -1033.8626    200.23898     532.1913    662.69203    38776.854 
    7800     299.3921    -1080.141    204.86648    467.83413    145.71796    38776.854 
    7900    303.50673   -1076.5191    197.39771    482.44599     291.9696    38776.854 
    8000    305.18573   -1117.0316    202.94962    455.01752    842.43879    38776.854 
    8100    302.10292   -1093.7368    203.25505    464.78798    504.29351    38776.854 
    8200     311.3575   -1122.5412    203.72821    477.97389    244.36834    38776.854 
    8300    301.98855    -1077.076    208.71166    486.39227    439.31983    38776.854 
    8400    291.82852   -1116.5422    223.81396    416.44931    504.81365    38776.854 
    8500    302.84342   -1143.0502    204.58265    420.12413     227.4092    38776.854 
    8600    298.43321   -1099.9876    214.36689    453.18621    147.08818    38776.854 
    8700    306.06275   -1104.5717    213.39123    481.85346   -221.28803    38776.854 
    8800    286.78143   -1100.3906    213.42826     399.5733    127.45791    38776.854 
    8900    308.91723   -1065.6358    207.21494    527.41858     341.3653    38776.854 
    9000    301.69482   -1075.9667    216.61396    494.08617    157.19471    38776.854 
    9100    306.39242   -1089.3344    215.86825    501.04676    498.70083    38776.854 
    9200    305.77985   -1122.6903    229.08859    478.16316    390.33779    38776.854 
    9300    294.18712   -1121.1835    209.31444    407.88937    337.55552    38776.854 
    9400    298.67506   -1144.8462    223.06083    418.10658    491.50257    38776.854 
    9500    309.60905   -1149.7782    215.25045    454.41536    651.62774    38776.854 
    9600    297.32044   -1131.2381    214.97665    417.55343    102.94395    38776.854 
    9700    298.06613   -1162.3833    236.23758    411.01442    289.84597    38776.854 
    9800     302.6632   -1140.0636    226.73403    444.45358    299.77597    38776.854 
    9900    301.59829   -1178.7237    219.12717    393.40935    462.66146    38776.854 
   10000    293.76736   -1133.5899    235.43381    419.71927    602.67965    38776.854 
   10100    302.59484   -1165.8712    233.06812    424.67347    656.67168    38776.854 
   10200    290.02513   -1159.7527    225.59223     366.9268    571.67905    38776.854 
   10300    303.53926   -1172.9451    225.93588    414.70405    386.84841    38776.854 
   10400    300.53759   -1187.7134    235.17247    395.70646    541.04225    38776.854 
   10500    302.36363   -1172.9135    213.49879    397.02454    415.23464    38776.854 
   10600    307.70057   -1156.6691    240.50658    464.21892    515.55261    38776.854 
   10700    289.08119   -1140.3975    237.96111    394.41629    451.13253    38776.854 
   10800    310.72288   -1096.5318    237.36951     534.7776    222.80721    38776.854 
   10900    294.06259    -1121.566    249.51189     447.1457    205.66753    38776.854 
   11000    302.80152   -1130.2921    242.12559    470.23718    460.78331    38776.854 
   11100    303.78906   -1153.2024    241.21949    450.85098    45.544064    38776.854 
   11200    300.44215   -1166.6051    244.69082    425.90501   -164.14005    38776.854 
   11300    297.29391   -1105.8692    251.16442    478.99108    289.21193    38776.854 
   11400    304.21422   -1107.7149    241.89797    498.92429    90.578249    38776.854 
   11500    303.46409   -1100.5153    240.53994    501.40074   -229.36878    38776.854 
   11600    303.05141   -1151.5833     237.0566    444.99801    123.75653    38776.854 
   11700     297.3104    -1142.929    239.99448    430.83538    391.55678    38776.854 
   11800    301.08726   -1150.5262     250.4105    450.59757    587.90088    38776.854 
   11900    312.08462   -1141.0119    236.93927    495.97617    442.77235    38776.854 
   12000    303.46149   -1126.0745    247.16918    482.45906    648.75547    38776.854 
   12100    299.76509    -1108.513    242.69412    478.96303    677.96023    38776.854 
   12200    300.47226   -1137.2861    254.92411    465.59237   -211.27491    38776.854 
   12300    302.74482   -1159.8399    240.68273    438.99215    71.043476    38776.854 
   12400    309.25537     -1134.78    238.11161    490.68801    595.78674    38776.854 
   12500    300.48288    -1104.606    253.33528    496.73129    220.99833    38776.854 
   12600    298.03248   -1140.5797    260.27671    456.70616    384.71357    38776.854 
   12700    291.98367   -1157.6554    266.53906    418.75718     160.3184    38776.854 
   12800     298.4175   -1122.7945    246.16723    462.10921    390.25119    38776.854 
   12900    301.52383   -1133.0241    276.96556    496.61325    250.63407    38776.854 
   13000    310.87681   -1116.3601     255.7392    534.00946    454.47998    38776.854 
   13100    306.23252   -1137.5903    255.75968    491.96493    842.01425    38776.854 
   13200    303.30755   -1127.0197    271.08715     504.7413    359.53421    38776.854 
   13300    303.51836   -1137.7864    273.59705    497.43016    403.88402    38776.854 
   13400    292.19871   -1148.2576    248.68706    411.26773    198.04185    38776.854 
   13500    298.64217   -1154.2409    284.41467    469.91809   -17.230248    38776.854 
   13600    291.36083   -1182.6296    267.01439    391.46421    52.373896    38776.854 
   13700      288.101   -1121.2147    272.69413    443.93481    301.96533    38776.854 
   13800    294.29804   -1148.0892     260.4946    432.66145   -156.32074    38776.854 
   13900    296.62607   -1145.2916     275.3357    460.74396    362.68046    38776.854 
   14000    292.73793   -1166.7732    261.99347    408.47749    415.34669    38776.854 
   14100    305.25961     -1157.89    252.77159    464.31256    577.19531    38776.854 
   14200    300.68294   -1142.6955     270.4225    476.62645    410.62452    38776.854 
   14300    302.58199   -1186.2021    255.13978    426.35649     469.9047    38776.854 
   14400    302.90157   -1125.8978    261.92785    494.88258   -214.64118    38776.854 
   14500    306.68549    -1140.822     272.4159     507.4216    337.65242    38776.854 
   14600    302.54029   -1147.0753    267.49916    477.65566    144.59426    38776.854 
   14700    309.25746   -1169.0453    274.60908    492.92963    396.07917    38776.854 
   14800    300.50447   -1193.6538    268.91593    423.36101    101.38284    38776.854 
   14900    303.54274    -1157.084    281.54073    486.18565    286.14363    38776.854 
   15000    304.32606   -1157.9217    268.50442    475.82567    53.875179    38776.854 
   15100    305.37372   -1171.7918    278.95528    477.10636    380.71743    38776.854 
   15200    303.95965   -1138.8916    265.04829    489.75586    282.86746    38776.854 
   15300    305.36673   -1190.6353     258.7665    438.04278    46.542671    38776.854 
   15400    304.96682   -1200.6469    285.43459    452.90517    213.54144    38776.854 
   15500    296.50817   -1200.8947    264.27491    393.55122      567.258    38776.854 
   15600    301.74266   -1264.3617    269.81409    359.10596    971.55165    38776.854 
   15700     292.3495   -1172.0514    264.80689    404.27012      648.817    38776.854 
   15800    297.35805   -1197.2782    287.66613    424.37159    63.036526    38776.854 
   15900    290.26161    -1187.562    271.12311    385.70926    355.21684    38776.854 
   16000    303.59744   -1183.3258    263.03446    441.68296    24.469192    38776.854 
   16100    294.92622   -1195.9259    292.56851    419.71681    246.76453    38776.854 
   16200     304.4037   -1198.8446    279.59243    446.33909    69.289862    38776.854 
   16300    308.96931   -1174.5885    281.23607    492.72068    333.02515    38776.854 
   16400    305.83215   -1128.0095     278.6176    522.60755    352.95972    38776.854 
   16500    304.46353   -1177.0617    281.60376    470.40167    245.79562    38776.854 
   16600    297.22765   -1192.0429    264.86895    406.22467    -360.0692    38776.854 
   16700    302.00236   -1192.7803    268.96113    430.99944   -710.69821    38776.854 
   16800    296.84601   -1168.7725    275.95596    438.87005   -271.59136    38776.854 
   16900    304.88793   -1217.7107    269.89492    419.94775   -11.916838    38776.854 
   17000    298.93139   -1245.9048    273.35195    368.48896   -38.026329    38776.854 
   17100    293.38005   -1237.4469     288.4578    367.14881    188.96788    38776.854 
   17200    302.88554   -1240.3513    274.25181    392.68106    492.81709    38776.854 
   17300    308.57222   -1178.0897    277.73215    483.93414    53.163044    38776.854 
   17400    299.54475   -1177.9342    291.22013    457.07937   -45.174315    38776.854 
   17500    296.42396   -1204.2003    286.80007    412.39289   -261.97144    38776.854 
   17600    302.56014   -1193.2132    290.53217    454.63977    366.36358    38776.854 
   17700    304.23658   -1159.5516    294.14222    499.43214    589.36774    38776.854 
   17800    294.40536   -1204.9227    293.98246    409.79732    287.98543    38776.854 
   17900    287.03473    -1196.923    292.79882    383.54777    754.34181    38776.854 
   18000     303.8184   -1198.2723    300.12864    464.82183     809.2363    38776.854 
   18100    306.92782   -1144.5836    313.88579     546.2169    504.59046    38776.854 
   18200    293.93648   -1195.3137     288.8944    412.21475    137.26577    38776.854 
   18300    313.81531   -1189.4421     282.7153    501.08603    592.58924    38776.854 
   18400    302.60608   -1209.4687    280.76648    428.82472   -70.860363    38776.854 
   18500    300.59922     -1211.09    290.72242     428.1563   -19.278963    38776.854 
   18600    296.55822   -1218.0619    288.32453     400.6581    478.93664    38776.854 
   18700    298.64346   -1181.2704    282.57786    441.05761   -169.94888    38776.854 
   18800    307.56382   -1219.9856    297.45475    457.23703    293.60117    38776.854 
   18900    297.84542   -1199.7809    284.63116    421.02035    116.56362    38776.854 
   19000    298.42313   -1220.8748    298.58204    416.46897   -37.454588    38776.854 
   19100    290.46186   -1201.3862    306.70398    408.36431   -155.76539    38776.854 
   19200    302.97819   -1153.6579    312.51062    518.04891    354.16552    38776.854 
   19300    303.07503   -1160.4139    274.09726    473.31401    517.22061    38776.854 
   19400    297.37025   -1245.0136    309.42663    398.45139    133.45736    38776.854 
   19500    290.37919    -1199.504    295.25256    398.42423    45.914193    38776.854 
   19600    292.85955   -1218.5841    288.11144     383.3302   -63.708988    38776.854 
   19700    297.60982   -1196.5808    319.06313    457.59546    36.300969    38776.854 
   19800    309.03867    -1205.765    299.71412    480.33335    115.94366    38776.854 
   19900     297.9491   -1204.6455    325.49403    457.48373   -62.493599    38776.854 
   20000    300.77049   -1230.7488    280.63384    399.17726   -282.34721    38776.854 
   20100     309.3417   -1222.1152     307.8154    473.44389   -38.052426    38776.854 
   20200     306.0049   -1246.3544    305.34563    431.76562    219.49907    38776.854 
   20300    296.47623   -1246.5725      292.549    376.00417   -49.990559    38776.854 
   20400    294.43599   -1198.1185    331.98784    454.74424    57.861271    38776.854 
   20500    296.65301   -1213.8619    313.80999    430.76886    336.94019    38776.854 
   20600    291.96098    -1212.652    302.01653    399.13623    233.84709    38776.854 
   20700    309.29265   -1226.9023    323.73624    484.35762     157.0311    38776.854 
   20800    305.33957   -1262.0259    307.09381    414.85764    29.122818    38776.854 
   20900    301.74974   -1228.1188    302.97099    428.53743    222.19538    38776.854 
   21000    304.68866   -1213.0949    315.55695    469.33172    22.229397    38776.854 
   21100    306.69296   -1249.8035    313.45641     439.5141    208.13304    38776.854 
   21200    302.20944    -1201.726    315.96786    469.98935    160.86632    38776.854 
   21300    298.76386   -1247.6768    306.66543    399.27889    -327.3338    38776.854 
   21400    290.53066   -1223.1378    325.44144    405.65882   -168.06894    38776.854 
   21500    305.88192   -1254.1845    308.49209    426.53035    117.09676    38776.854 
   21600    300.56138   -1252.6166    298.21731    393.95484    211.40651    38776.854 
   21700    311.09074   -1235.1724    317.14494    477.56268    194.65456    38776.854 
   21800    294.03365   -1242.3816    327.55127    404.23961     170.9765    38776.854 
   21900    297.76136   -1273.9132    319.67622      381.556     263.0214    38776.854 
   22000     287.6316   -1243.5561    318.13082    364.92437   -120.19411    38776.854 
   22100    290.75441   -1279.4728    312.94284    337.82902    414.13109    38776.854 
   22200    304.67273   -1270.5619    318.15071    414.38698    412.82978    38776.854 
   22300     304.8992   -1248.6851    331.28688     450.4159    610.26112    38776.854 
   22400    304.68303   -1231.5348    331.70166    467.01124    719.24658    38776.854 
   22500    293.53742   -1210.2659    314.31212    420.89008    78.902748    38776.854 
   22600    312.41612    -1214.002    315.04744    502.58133   -32.736705    38776.854 
   22700    301.11434   -1259.6761    319.14209    410.30081   -224.05038    38776.854 
   22800     301.9243   -1249.5801    297.91616    402.80444   -541.40326    38776.854 
   22900     291.4426   -1239.9315    326.89625    394.41094   -397.15321    38776.854 
   23000    311.85239   -1224.7074    310.33661    484.63619    179.04255    38776.854 
   23100    309.70985   -1241.5544    321.15932     469.0002     60.31218    38776.854 
   23200    307.60143   -1248.5688    326.54272    457.91056    12.323945    38776.854 
   23300    299.90765   -1228.3872    318.26201    435.29623    70.942222    38776.854 
   23400    292.56583   -1268.7516    319.08677    362.82029    138.34745    38776.854 
   23500    302.69774   -1262.3498    323.42735    419.01565    197.17948    38776.854 
   23600    293.53384   -1231.2173    308.32732    393.93777   -572.04827    38776.854 
   23700    304.73633   -1205.1779    325.01735    486.92293    -228.5316    38776.854 
   23800    296.36374   -1238.2275    326.39033    417.68593   -415.90049    38776.854 
   23900    308.20825   -1245.2921    341.37674    478.74358    -289.1662    38776.854 
   24000    296.11274   -1237.6322    323.23345    413.99822    18.829279    38776.854 
   24100    298.95972   -1268.7586    339.06608    411.47637   -465.19582    38776.854 
   24200    298.14492   -1230.0375    331.96811    439.44425   -340.31337    38776.854 
   24300    299.82946   -1199.7498    318.85256    464.17339   -789.49441    38776.854 
   24400    305.64705   -1184.5718    336.72457    523.32186   -182.57879    38776.854 
   24500    302.71716    -1193.791    341.88795    506.12218   -442.94187    38776.854 
   24600    297.79792   -1237.0335    343.75789    442.68133     103.6703    38776.854 
   24700    304.42531   -1213.6097    324.50616    476.58466    243.60655    38776.854 
   24800    306.86213   -1228.8698    321.71624    469.46654    103.14508    38776.854 
   24900    294.79964   -1193.0226    343.58156    473.06531    516.07848    38776.854 
   25000    310.87738   -1208.8218    325.58401    511.39523    635.02992    38776.854 
   25100    305.40813     -1212.78    333.61311    490.93035    860.13995    38776.854 
   25200    302.67789   -1250.9559    328.35539    435.24849    356.34836    38776.854 
   25300      303.007   -1239.0944     331.1947    451.42583    748.60737    38776.854 
   25400    295.23432   -1216.7322    344.94811    452.67221    251.18914    38776.854 
   25500    308.19031    -1202.943    333.79345    513.42893     -362.009    38776.854 
   25600     292.6972   -1210.0894    347.03729    450.02234    174.47362    38776.854 
   25700    296.99969   -1239.0225    349.47504    442.82852   -117.68019    38776.854 
   25800    285.89773   -1258.4183    331.92749    356.08044   -145.10149    38776.854 
   25900    288.13451   -1263.4341    362.91075    392.08241   -64.109994    38776.854 
   26000    305.48524    -1251.425    346.26972    465.28789   -32.860475    38776.854 
   26100    312.25197   -1263.0963     344.9289    482.63209   -15.222491    38776.854 
   26200    302.81436   -1280.6362    345.76784    423.59294   -78.250496    38776.854 
   26300    290.43743   -1261.7745    341.88057    383.04294   -41.509141    38776.854 
   26400    304.27779   -1281.1605    347.12915    430.99511   -294.00787    38776.854 
   26500    311.12824   -1265.5107    350.77129    481.01894   -104.46867    38776.854 
   26600    307.05169   -1286.2727    348.21624    439.41399   -229.26199    38776.854 
   26700    309.69666   -1293.6707    325.80882    421.47424    35.157696    38776.854 
   26800    294.36998   -1272.1866    330.10695    378.49912   -100.21894    38776.854 
   26900    301.52143   -1287.8084    353.80587    418.65856   -541.10092    38776.854 
   27000    296.10289   -1258.9002    364.32948    433.78216   -132.66641    38776.854 
   27100    297.00448   -1268.1655    337.43566    401.66764    220.09613    38776.854 
   27200    293.77111   -1274.6175    327.75741    371.03213    603.82139    38776.854 
   27300    297.69277    -1277.378    324.69749    382.80466    22.022731    38776.854 
   27400    299.43401   -1286.9984    347.35266     403.6509     448.0939    38776.854 
   27500    292.72998   -1260.2079    344.64048    397.65411    281.23264    38776.854 
   27600     299.9062   -1288.1658    344.86969    402.11883    4.9741734    38776.854 
   27700    300.67121   -1302.4875    341.15772    387.51709    348.17335    38776.854 
   27800    296.92809      -1269.8     347.8241    410.07889    935.84099    38776.854 
   27900     293.1313   -1225.6507    342.17649    431.54774    220.63224    38776.854 
   28000    306.33938   -1257.2307     359.2608    476.30501    41.659297    38776.854 
   28100    308.49566   -1276.2635    353.33027    461.01501    90.380341    38776.854 
   28200    308.31521   -1279.1593    377.17644    481.15587    155.98128    38776.854 
   28300    302.42587   -1279.2523    343.47072    420.93693   -121.34421    38776.854 
   28400    303.10664   -1219.6813    355.71868     495.8099    -45.78934    38776.854 
   28500    295.54107   -1255.4183     360.8359    431.25002   -39.427063    38776.854 
   28600    309.05935    -1278.854    355.88768     463.5107    148.18773    38776.854 
   28700     311.6416   -1283.8733    346.09509    460.28313    116.00837    38776.854 
   28800    300.81841   -1295.3023    353.31381    407.51869    217.18974    38776.854 
   28900    294.40887   -1279.6704    342.17658    383.25946    216.24713    38776.854 
   29000    303.00133    -1286.448    352.74216    425.59421    538.75311    38776.854 
   29100     305.0454   -1311.8089    357.02706    413.68818     743.1864    38776.854 
   29200    301.10872   -1307.3165    357.88944    401.38256    212.61163    38776.854 
   29300    305.80915   -1293.8241     375.7009    453.77308    619.48629    38776.854 
   29400    296.75521   -1319.5485    384.67802    396.40874   -213.92839    38776.854 
   29500    296.73086   -1293.3621    340.48386     378.2917    49.228466    38776.854 
   29600     313.9893   -1283.1736    372.27117      497.691   -81.788991    38776.854 
   29700    310.65674   -1278.3646    352.22495    467.50353    251.51577    38776.854 
   29800    292.34377   -1300.4282    377.35774    388.41855    238.38373    38776.854 
   29900    293.71839   -1303.8449     369.3061    383.11689    303.99677    38776.854 
   30000    295.92447   -1268.7753    366.44387    425.22099    623.64269    38776.854 
   30100    296.69844   -1263.0175    373.02389    441.03095    888.73309    38776.854 
   30200    303.88523   -1296.6505    365.81442     432.4292    435.18506    38776.854 
   30300    299.67209   -1278.9355     334.9696    400.39885    150.10192    38776.854 
   30400    294.54701   -1315.4355     355.5152    361.45266     37.39682    38776.854 
   30500    296.68347   -1295.9283     358.1264     393.1555    95.826242    38776.854 
   30600    292.59723   -1296.5133    370.60958    386.72233    168.54994    38776.854 
   30700    292.96332   -1254.5282    352.76757    412.50771    320.25136    38776.854 
   30800    300.59065   -1263.0616    364.13935     449.5632    21.866944    38776.854 
   30900    305.92505   -1270.4749    360.78594     462.7273     469.5558    38776.854 
   31000    297.78772   -1230.5698    379.65405    484.99542    140.74374    38776.854 
   31100    302.40504   -1307.3845    348.72413    397.96463    338.18732    38776.854 
   31200    306.54005   -1288.1081    336.48633    423.55339     415.9377    38776.854 
   31300    308.73442   -1291.1688    378.42633    472.27693    151.18512    38776.854 
   31400    304.60559   -1212.1275    370.09347    524.46295     235.4889    38776.854 
   31500     294.1847   -1231.6054    381.04292    469.18516   -274.15349    38776.854 
   31600    306.90066   -1236.5857    353.28944    493.49667    -396.3745    38776.854 
   31700    313.58354    -1239.199    368.25588    535.82994    40.780245    38776.854 
   31800     305.5943   -1226.4283    350.48592    494.99003   -52.650626    38776.854 
   31900     298.8936   -1256.7705    380.49117    464.59299     254.3987    38776.854 
   32000    303.15821   -1291.6291    369.35253    437.72726    22.695349    38776.854 
   32100    286.90632    -1291.433    357.90185    353.56478    522.99957    38776.854 
   32200    300.05166   -1248.7437    350.44118    447.76503    100.50511    38776.854 
   32300    301.79308   -1251.3704    374.66764    477.17695    234.03182    38776.854 
   32400    294.67053   -1232.6902    363.69802    452.93497   -176.28038    38776.854 
   32500    297.07838   -1251.6661    355.35316    436.41612   -207.83878    38776.854 
   32600    298.25678   -1274.6075    350.76587    414.17379    85.394147    38776.854 
   32700     291.2347   -1283.4577    352.59023    375.64612    282.00971    38776.854 
   32800    289.71635   -1306.7505    363.61497    356.56655    208.29239    38776.854 
   32900    297.37359   -1316.4098    345.61775    363.26131    17.559389    38776.854 
   33000    293.79526   -1294.2891    361.88516    385.59661     216.3387    38776.854 
   33100    307.38692   -1324.9426    364.81218    418.84394    366.92196    38776.854 
   33200     303.8611   -1279.4734    366.69575    450.37947    298.08255    38776.854 
   33300    303.00283    -1250.456    380.42443    489.27521   -7.3767086    38776.854 
   33400    301.07425   -1271.1712    342.34817    421.83191   -544.24178    38776.854 
   33500    298.80656   -1263.0276    380.88104    458.33524   -376.53008    38776.854 
   33600     303.0828   -1292.3467    364.68945    432.00824   -330.98199    38776.854 
   33700    305.12006   -1292.0319    351.98396      428.757   -77.270145    38776.854 
   33800    295.03878   -1288.6008    365.88769    400.86602    326.54178    38776.854 
   33900     311.2626   -1234.1308    355.21554    517.44582    181.51645    38776.854 
   34000    307.00639   -1250.4552     356.6515    483.46356    259.50493    38776.854 
   34100    301.71801   -1293.5082    346.70574     406.7405   -5.1483313    38776.854 
   34200    297.09954   -1278.5684    363.58558    417.84115   -252.14404    38776.854 
   34300    296.06158    -1300.266     363.5969    391.49844    -321.0261    38776.854 
   34400    299.03051   -1268.8941    364.58273    437.17506   -165.26595    38776.854 
   34500    305.55713   -1270.5628    354.38399     454.5869   -177.02611    38776.854 
   34600    283.83814   -1284.3795    386.48502    375.43726    37.691977    38776.854 
   34700    301.47608   -1256.9892    350.53571    446.00417    181.15514    38776.854 
   34800     306.7948   -1286.3878    390.17165    480.10191    115.48367    38776.854 
   34900    293.18429   -1281.8179    353.26176    386.70353   -38.253549    38776.854 
   35000    301.10747   -1288.5353    381.83475    444.10343    190.00288    38776.854 
   35100    293.52006   -1310.1657    372.82562    379.42585    129.91844    38776.854 
   35200    291.92076   -1344.0694    350.88632    316.40821    22.666224    38776.854 
   35300    290.58846   -1313.2808     366.7481    357.08176   -270.05165    38776.854 
   35400    304.00403    -1284.969    350.80875    429.63811    38.820157    38776.854 
   35500    297.69496   -1325.2469    352.92486      363.173   -273.83776    38776.854 
   35600    306.68535   -1279.7039    353.83943    449.96259    162.01731    38776.854 
   35700    293.99615   -1276.3101    384.32793    426.91963   -57.476928    38776.854 
   35800    293.81622   -1277.4491    381.38849      422.034    153.54151    38776.854 
   35900     304.9266   -1253.6363    358.01572    472.31651    44.046407    38776.854 
   36000    299.79797   -1269.3719    386.26462    461.82211    467.10636    38776.854 
   36100    301.92421   -1291.1507    361.84305    425.16033    128.88853    38776.854 
   36200    307.95809   -1361.8082    376.88757    396.61606    211.27247    38776.854 
   36300     300.5075   -1334.3749    360.03495     373.7725    90.314367    38776.854 
   36400    298.54098   -1305.2113    350.70061     384.7797   -202.16557    38776.854 
   36500    290.76957   -1309.3087    376.32817    371.44636    43.607591    38776.854 
   36600    293.68924   -1283.2067     377.2593    411.57746   -14.552243    38776.854 
   36700    296.81023   -1334.9682    372.04848    368.60637   -391.29403    38776.854 
   36800    287.15701   -1314.4602    360.91732     334.6776   -281.70323    38776.854 
   36900    296.92863   -1327.2433    372.31153    377.12547   -332.03265    38776.854 
   37000    305.19518   -1312.4318    368.90774    425.61789   -5.8816859    38776.854 
   37100    300.05057   -1305.1369    382.43307    423.35875    179.06485    38776.854 
   37200    300.62699   -1334.2194    362.38621    376.81533    612.49346    38776.854 
   37300    295.09638   -1305.7952    363.21326    381.25552   -90.278198    38776.854 
   37400    297.20588   -1330.1433    381.43756    384.59523    226.53708    38776.854 
   37500    305.59822   -1293.1772    346.66137    424.43416    91.000133    38776.854 
   37600    292.29879   -1310.8771    395.38377    395.79385    -558.9211    38776.854 
   37700    294.17653   -1342.7763    369.18626    346.12091    76.519012    38776.854 
   37800    300.23396   -1329.6184    370.48088    387.74777    212.82617    38776.854 
   37900    297.23007    -1319.305    367.45356    381.55808   -204.30992    38776.854 
   38000    304.69348   -1320.7091    351.27359    397.45571   -197.76448    38776.854 
   38100    294.73489   -1293.4347    374.05668    402.83781   -442.58494    38776.854 
   38200    295.25606   -1364.6276    393.12421    353.05044   -157.57431    38776.854 
   38300    309.95752   -1299.3503    379.52089     470.6769    474.68131    38776.854 
   38400     300.6103   -1318.8026    383.89759    413.66855    488.74845    38776.854 
   38500      301.755    -1344.554    376.08709    385.24194    105.96469    38776.854 
   38600    292.98062   -1353.2744    376.19893    337.27053    -290.6563    38776.854 
   38700    294.18666   -1347.0419    395.63482    368.34928   -144.22567    38776.854 
   38800    298.70659   -1329.8369     399.9974    410.19384   -455.28869    38776.854 
   38900    297.90132   -1290.7991    394.74492     440.3666    216.64356    38776.854 
   39000    300.99638   -1300.2754    402.34196    452.37222    796.81698    38776.854 
   39100    292.15044   -1296.5838    380.26103    394.29886     316.4383    38776.854 
   39200    290.43659   -1285.6323    396.89113    414.19199    99.201776    38776.854 
   39300    298.83142   -1295.6574    385.55576    430.49169   -369.97186    38776.854 
   39400    303.08048   -1331.2617     391.0194    419.41289   -320.15115    38776.854 
   39500     293.6236   -1290.5011     407.4122    434.14153    410.47474    38776.854 
   39600    303.97748   -1321.8218    381.23092    423.08835    555.99823    38776.854 
   39700    291.24513   -1311.8484    391.76348    386.47543    699.22185    38776.854 
   39800    310.11386   -1314.5607    393.95482    470.60179    898.96423    38776.854 
   39900    308.31029   -1342.7788    380.84188    421.17979    886.24104    38776.854 
   40000    298.71912    -1371.741    392.79536    361.14389    419.88288    38776.854 
   40100    302.70152   -1393.1183    358.36685    323.20365   -315.45813    38776.854 
   40200    296.72218   -1348.4924    404.84831    387.48698   -81.036041    38776.854 
   40300    300.01699   -1388.2917    370.35727    327.97747    147.49646    38776.854 
   40400    292.69588   -1364.5133    379.34209     327.8974   -87.481225    38776.854 
   40500    303.24939   -1339.0828    381.06088    402.39097   -212.60121    38776.854 
   40600    285.32598   -1340.7861    376.33235    315.55253   -20.933401    38776.854 
   40700    296.25245   -1352.1753    398.84657     375.6951    261.03659    38776.854 
   40800    300.14752   -1320.8174    387.69209    413.37223    149.60093    38776.854 
   40900     298.2793   -1322.8049     398.7748    414.08641     48.14794    38776.854 
   41000      300.479   -1345.2474    408.94417    411.68135    413.39324    38776.854 
   41100    301.86988   -1347.6102    388.51027    395.12435    497.52812    38776.854 
   41200    297.13666   -1354.1804    398.93055    377.74062    114.85309    38776.854 
   41300    294.07717   -1377.1265    381.66054    323.79924    395.76074    38776.854 
   41400    302.81822   -1375.6601    396.22395    379.04249    27.821694    38776.854 
   41500    286.17558   -1348.4141    389.59472    324.99832    614.98228    38776.854 
   41600    296.36175   -1335.6434    408.14288    402.01365    635.94957    38776.854 
   41700     293.7223   -1328.6838    382.41978    371.40916    403.17171    38776.854 
   41800    298.70088   -1399.9945    373.52032    313.53349    390.85955    38776.854 
   41900    309.04429   -1383.5885    381.86705      384.688    131.13911    38776.854 
   42000    290.56668    -1363.706    388.14283     327.9536     458.8489    38776.854 
   42100    308.41409   -1356.1357    383.64216     411.0888    129.37406    38776.854 
   42200    308.77769   -1353.7179    386.53569     418.0313    349.44368    38776.854 
   42300    291.28365   -1342.9077    405.04326    368.86876    563.19976    38776.854 
   42400    304.12942   -1378.8955    392.07635    377.54169    264.16767    38776.854 
   42500    304.65474   -1358.8139    408.54916    416.45276    642.41015    38776.854 
   42600    287.14408   -1373.1653    397.92973    312.92695    610.60506    38776.854 
   42700    300.57159   -1363.1082    411.46594    396.75771    240.00092    38776.854 
   42800    305.45344   -1354.3847    399.63179    415.54761     428.8701    38776.854 
   42900    311.97998    -1329.255    394.97006    465.29441   -102.74527    38776.854 
   43000    296.78761   -1320.6455    406.44467    417.22372    -270.4807    38776.854 
   43100    296.87827    -1321.974    397.87133     407.7286   -310.30165    38776.854 
   43200    300.72168   -1299.7808    405.64503     454.9375   -68.378341    38776.854 
   43300    299.04798   -1345.2659    401.92914    398.22809    367.51025    38776.854 
   43400    295.48067     -1363.65    379.04312    340.95457    179.45492    38776.854 
   43500    305.92017   -1338.4033    395.25666     429.2477   -143.30412    38776.854 
   43600     298.6056   -1325.2469     376.6548    390.98819    467.39672    38776.854 
   43700    303.39699   -1308.2739    387.91327    440.71439   -5.3926212    38776.854 
   43800    293.64901   -1368.9732    371.53518    319.90645    231.81028    38776.854 
   43900    308.38595   -1328.7688    378.46715    433.15443    224.07351    38776.854 
   44000    296.48253   -1343.9735    397.29239     383.3748    463.58431    38776.854 
   44100    291.59594   -1357.1133    395.98641    347.00728    363.49106    38776.854 
   44200     294.6849   -1366.9646    389.42184    344.44879   -118.00321    38776.854 
   44300    302.79997   -1340.9213    381.08828    398.56373   -78.172621    38776.854 
   44400    294.75393   -1358.8826    386.50067    349.91931   -446.77388    38776.854 
   44500    307.96741   -1310.4277    391.17017    462.32096   -451.72829    38776.854 
   44600    299.54365   -1357.9162    393.58759    379.45988   -665.66581    38776.854 
   44700    307.40422   -1303.4721    393.86778    469.44765    60.733909    38776.854 
   44800    299.66485   -1296.0485    387.44019    435.72386   -427.68426    38776.854 
   44900    305.70103   -1340.8722    399.33444    429.87349   -339.50654    38776.854 
   45000    303.72149   -1342.1538     384.9805    405.35752   -205.42686    38776.854 
   45100    306.05165    -1292.342     413.6256    494.26779   -379.40652    38776.854 
   45200    307.47597   -1360.5335    411.15695     429.9973   -99.432537    38776.854 
   45300    310.30535   -1367.2857    389.72428    414.50537   -48.164295    38776.854 
   45400    296.10596   -1313.6326    409.34474    424.07872   -203.87311    38776.854 
   45500    298.91428   -1349.1632    402.49613    394.29799    183.28426    38776.854 
   45600    299.35727   -1363.5167    364.04668    343.48239    187.26531    38776.854 
   45700    305.31196   -1337.9935    360.65814    392.33042   -295.36508    38776.854 
   45800    298.63086   -1352.8162    378.22734    365.10478   -199.43745    38776.854 
   45900    304.40393    -1381.871    387.52214    371.24343    503.72608    38776.854 
   46000    294.45989   -1342.9307    383.12106    361.17251     276.3705    38776.854 
   46100    302.32293   -1359.5182    385.33528    382.07376    305.57176    38776.854 
   46200    313.19363   -1339.5428    397.18896    462.67015    335.09211    38776.854 
   46300    308.83687   -1358.0687    388.17411    415.58437    212.86962    38776.854 
   46400    296.50205   -1338.1256    383.30884    375.32671    -90.05165    38776.854 
   46500    295.77203   -1310.4068    404.83799     421.2997   -396.33005    38776.854 
   46600    295.57405    -1306.282    392.99096    412.68937    243.66224    38776.854 
   46700    296.74576   -1317.2872    417.12814    431.07776    69.836297    38776.854 
   46800    314.40202   -1281.1999    407.78257     537.0276   -170.97513    38776.854 
   46900    298.91728   -1278.2118    376.94332    439.71009    352.40357    38776.854 
   47000    298.56763   -1339.0578     374.8317    375.18385   -240.96178    38776.854 
   47100    313.70203   -1276.3683    393.32971    524.26612    239.58861    38776.854 
   47200    291.85797   -1268.2078    405.29997    446.40173    133.46235    38776.854 
   47300    295.93558   -1296.7536    404.22858     435.0773    250.41809    38776.854 
   47400    304.66909    -1326.633    378.92211    419.07092    161.50049    38776.854 
   47500    303.61511   -1303.6983    384.95793    443.31313    243.87211    38776.854 
   47600    296.14935   -1327.0295    385.78764    387.31944   -126.64791    38776.854 
   47700    297.08351   -1316.0135    384.67139    401.40995    197.06946    38776.854 
   47800    303.68989   -1331.7808    411.60059    442.20879    354.44503    38776.854 
   47900    294.86433   -1300.3043    403.57524    426.06748    971.82001    38776.854 
   48000    311.53812   -1286.7471    399.08568     509.9357    796.03436    38776.854 
   48100    295.79918   -1330.7677     401.3256     397.5483    184.66741    38776.854 
   48200    290.19924   -1337.0395    396.99103    361.81992    188.86458    38776.854 
   48300    296.82919   -1306.0284    388.11664    413.69939    145.45087    38776.854 
   48400    313.16731    -1314.079    399.16706    489.99396   -106.52453    38776.854 
   48500    301.40699   -1329.1918    413.15056    436.10648    167.30859    38776.854 
   48600    301.92574   -1301.5943    396.01563    448.89615     162.3856    38776.854 
   48700    312.31754   -1252.4563    402.21998    550.85735   -44.107382    38776.854 
   48800    292.89337   -1347.3346    407.35844    373.97838     348.3039    38776.854 
   48900    296.45927   -1343.3839    393.66294    380.23065    176.93498    38776.854 
   49000    305.99617   -1368.3918    397.18034    401.52387    671.28843    38776.854 
   49100    287.38609   -1359.4576    393.97572    323.76629    410.52326    38776.854 
   49200     305.4178   -1391.6362    389.18819     367.6926    700.21623    38776.854 
   49300    286.33387    -1365.981    403.91196    322.45883   -360.82085    38776.854 
   49400    290.65421   -1382.9453    400.61378    321.57789    418.15739    38776.854 
   49500    300.27819   -1348.1548      401.798    400.72693    738.50417    38776.854 
   49600    297.35406   -1343.1294    439.82754     430.6639    489.78695    38776.854 
   49700    306.28821   -1323.7734    414.71705    464.98903    362.38372    38776.854 
   49800     288.4455   -1314.5322     414.9768    394.44548    154.16358    38776.854 
   49900    307.88063   -1310.8818    403.65151    473.95892   -184.99816    38776.854 
   50000    304.28258   -1284.7451    415.12809    495.43089   -522.66676    38776.854 
   50100    300.70916   -1297.7697    396.46632    447.71375   -334.22745    38776.854 
   50200    290.55345   -1293.1055    426.42947    436.78139   -589.38773    38776.854 
   50300    305.77121    -1345.833    401.18517    427.07822   -96.642435    38776.854 
   50400    310.54931   -1336.8535    421.73148    478.03911    2.1841319    38776.854 
   50500    293.20104   -1319.1784    410.63094     406.7873    458.30698    38776.854 
   50600    290.46574   -1308.8286    405.79978    400.03509    319.54686    38776.854 
   50700    293.83743   -1345.1925     411.2328    384.23002    779.15143    38776.854 
   50800    295.71211   -1349.0234    402.20631    379.78264    536.06766    38776.854 
   50900    290.23693   -1350.8551    396.84266    348.02502    276.63169    38776.854 
   51000    303.82166   -1382.2184    425.29004    406.05179    540.41273    38776.854 
   51100    297.47327   -1396.7483    432.34603    370.09824    200.08592    38776.854 
   51200    303.26154   -1358.1896    398.62053    400.89833    665.56077    38776.854 
   51300    304.04804   -1417.0423    414.38604    361.33945    189.76351    38776.854 
   51400    304.59584   -1374.9988    384.03655    375.49095    355.61499    38776.854 
   51500    298.97668   -1386.9558    400.75057    355.03979    123.62813    38776.854 
   51600    298.85683   -1368.4233    390.95196    363.23594    133.75667    38776.854 
   51700     303.2817   -1349.2064    414.04963    425.40106    426.24452    38776.854 
   51800    289.07121   -1374.0991    412.94893    335.65772    266.34286    38776.854 
   51900    298.64294   -1361.5245    420.89322     399.1165    665.10179    38776.854 
   52000    288.81033   -1326.5472    401.22038    370.31071   -449.03381    38776.854 
   52100    300.70485    -1296.791    422.78019    474.98701    605.59413    38776.854 
   52200    295.25631   -1343.9793    395.19166    375.76735   -51.132265    38776.854 
   52300    291.17256   -1274.6451    432.02968    463.61933   -551.70139    38776.854 
   52400    297.43973   -1297.0644    418.43815    455.72378   -392.30122    38776.854 
   52500    307.34411   -1294.5202    412.81282    497.07494   -532.86787    38776.854 
   52600    297.07995   -1302.9202    409.97604    439.79189   -364.07648    38776.854 
   52700    299.81418   -1323.1602    421.97247    443.81439   -245.78648    38776.854 
   52800    290.95737   -1333.1205    428.00646    400.15532    361.62836    38776.854 
   52900    300.64725   -1397.5021    423.73824    374.97551    320.96766    38776.854 
   53000    307.50681   -1378.9483    407.25845    407.82236    901.53071    38776.854 
   53100    299.47812   -1391.4351    424.61947    376.67884     396.3397    38776.854 
   53200    285.21529   -1382.9358    425.01653     321.5905    566.25693    38776.854 
   53300    310.14886    -1395.501    405.02278    400.88652    326.05563    38776.854 
   53400    295.56867   -1404.3444    407.34875    328.96063   -73.132214    38776.854 
   53500    306.92802     -1444.78    401.37448    333.51008    350.17519    38776.854 
   53600    301.29904   -1395.1319     440.8558    397.38729    1044.7381    38776.854 
   53700    301.43547    -1372.095    379.18007     359.3605    692.47361    38776.854 
   53800     294.6404   -1363.9674    412.75859    370.58314    1124.0299    38776.854 
   53900    301.00123   -1319.4782    425.68029    456.52948     852.9061    38776.854 
   54000     298.7415   -1358.6295     420.3518    401.91223    517.03829    38776.854 
   54100    307.48786   -1342.0979    411.17679    448.50609    290.50091    38776.854 
   54200    301.13791   -1367.3761    414.21387    397.77829   -16.382289    38776.854 
   54300    290.49088   -1376.4912    420.40634    347.09189    47.692941    38776.854 
   54400    295.74784   -1388.1646    394.88197     333.4774    255.36241    38776.854 
   54500    299.95327   -1364.3155    416.06658     397.3772    95.314391    38776.854 
   54600    293.49465    -1377.192    421.34431    360.80425    96.644888    38776.854 
   54700    305.46343   -1404.7658    413.81341    379.39294    173.39398    38776.854 
   54800    307.63554   -1316.7262     424.4385    487.80201     550.0916    38776.854 
   54900    305.51263   -1326.9562    425.95512    469.56497      510.854    38776.854 
   55000    297.69382   -1349.2681    426.16416    412.38601    60.377906    38776.854 
   55100    296.62714   -1316.8352     408.0897    421.95915    351.84102    38776.854 
   55200    307.78451    -1290.888    442.19698    532.06697    654.63756    38776.854 
   55300    296.59596   -1319.0966    420.34742    431.81567    656.96056    38776.854 
   55400    281.40329   -1308.3481    405.74501    359.80554    92.850494    38776.854 
   55500    289.57426   -1288.7193    420.20033    430.54569    238.24166    38776.854 
   55600    300.89943   -1324.7079    417.97687    443.13965   -243.59859    38776.854 
   55700    297.82728   -1335.9695    409.46133    409.58052   -510.20804    38776.854 
   55800    289.70547   -1332.1545    403.49112     370.9899    -566.6204    38776.854 
   55900    296.83875   -1328.8823    386.96079    389.73245   -667.32706    38776.854 
   56000    297.36687    -1332.189    437.72591    439.56014   -151.07315    38776.854 
   56100    310.22953   -1324.9526    410.39739    477.17144   -311.09553    38776.854 
   56200    304.15287   -1334.7955    417.84616    447.51671   -472.15218    38776.854 
   56300    298.30978   -1339.0968    443.97358    443.13001   -382.41409    38776.854 
   56400    311.03078   -1321.6911    401.81407    475.44411   -20.746932    38776.854 
   56500    292.63053   -1350.6758     427.6718    389.77144   -85.637749    38776.854 
   56600    309.45614   -1370.7939    398.12296    415.58619   -376.32766    38776.854 
   56700    297.87939   -1328.4501    433.09365    440.96599    17.898209    38776.854 
   56800    302.13209   -1300.8443    420.74031    475.29655    154.80314    38776.854 
   56900    293.56316   -1344.9906    403.68411    375.65282    137.85009    38776.854 
   57000    299.75443   -1358.1263    403.95662    390.56439   -262.50293    38776.854 
   57100    304.26186   -1376.8572    410.83721      398.935    195.90341    38776.854 
   57200    292.72723   -1381.6963    405.90939    337.42235    397.62362    38776.854 
   57300    308.56481   -1381.8055    395.69647    398.14946    105.05939    38776.854 
   57400    310.91734   -1375.4213    396.58545     415.9764    165.44764    38776.854 
   57500    296.19516   -1435.3697     407.2053    300.60235   -244.09265    38776.854 
   57600    310.28027   -1398.1549    412.67767    406.47702   -307.25635    38776.854 
   57700    297.64927   -1382.0477    398.40661    351.64899    210.08134    38776.854 
   57800    301.65557    -1398.614     419.4243    374.07305     145.7467    38776.854 
   57900    294.34152   -1382.0127    420.78099    359.21937   -170.97512    38776.854 
   58000    306.27962    -1365.269    395.33801    404.07586   -693.73315    38776.854 
   58100    307.07397   -1360.5028     408.5393    425.60687   -385.66397    38776.854 
   58200    307.86304   -1362.6611    403.67071    422.11988    885.65403    38776.854 
   58300    297.68323   -1403.4032    420.60763    352.64686    32.655626    38776.854 
   58400    296.99039   -1425.4838    426.39086     333.2413     115.7936    38776.854 
   58500    291.62252   -1438.2157    398.23305    268.27072    174.93949    38776.854 
   58600    293.81952   -1443.3545    413.76409    288.51896    334.80289    38776.854 
   58700    298.43659   -1389.6176    408.70346    357.90801    190.36294    38776.854 
   58800    293.47254   -1409.5502    404.72681    311.72942     115.8328    38776.854 
   58900    293.98798    -1430.071    435.91156    324.70569   -55.556897    38776.854 
   59000    302.43832   -1386.4489    408.33857    378.66397   -402.42601    38776.854 
   59100    298.85766   -1384.9897    409.58402    365.30539   -739.32861    38776.854 
   59200    304.65718    -1384.024    409.04302    391.74747   -623.00821    38776.854 
   59300    287.87767   -1395.4394    401.46958    297.48364   -776.06761    38776.854 
   59400    308.23006   -1373.7095    397.40165    406.44895   -669.68857    38776.854 
   59500    308.54066   -1417.6089    398.17989     364.7212   -182.24136    38776.854 
   59600    305.28786   -1461.5478     407.2761    315.28602   -209.73409    38776.854 
   59700    298.93802   -1473.6341    397.85627    265.29375   -356.59375    38776.854 
   59800    301.36822   -1423.0505    372.13441    301.05764   -98.173109    38776.854 
   59900    298.78542   -1416.5342     410.4341    334.28686   -263.61711    38776.854 
   60000    299.76914   -1427.2315    409.99208    327.56064   -173.91028    38776.854 
   60100    295.02388   -1454.2769    400.32642    269.56179    40.347135    38776.854 
   60200    300.06299   -1414.2292    417.63943    349.52852   -283.60899    38776.854 
   60300    300.09789   -1408.4052    391.48942    329.35907   -132.62429    38776.854 
   60400    297.72871   -1424.2035    376.92565    288.36859    84.683665    38776.854 
   60500     302.8846    -1418.164    393.42959    334.04202    502.88507    38776.854 
   60600    302.98651   -1357.5005    409.55653     411.2896    451.21904    38776.854 
   60700    314.32048   -1368.9501    411.66747    452.79647   -29.795909    38776.854 
   60800    274.40789   -1380.2279    421.75587    272.55447    251.25097    38776.854 
   60900    309.94744   -1414.2514    393.83519    370.04489    432.53816    38776.854 
   61000    306.76034    -1365.003    409.60911    420.76957    787.31471    38776.854 
   61100    297.33848   -1362.6462    405.01855    376.26819    505.32333    38776.854 
   61200    304.20294   -1350.9439     409.1087    422.85539    484.97066    38776.854 
   61300    291.95239   -1386.3053    412.03167    335.45958    354.83497    38776.854 
   61400    305.01455   -1400.1106    420.54028    388.76127     659.6951    38776.854 
   61500    293.18092   -1374.1557    396.03614    337.12503    7.7438216    38776.854 
   61600     297.6143   -1357.1923    426.50519    404.44603   -366.35402    38776.854 
   61700    298.77689   -1352.3718    422.74206      410.719    443.29022    38776.854 
   61800    298.82935   -1333.9917    411.47311    418.06542    262.01706    38776.854 
   61900    299.19426   -1297.0108    461.46123    506.67148    204.27093    38776.854 
   62000    297.80781   -1301.6063    423.30014    457.69515    51.573398    38776.854 
   62100    293.79859   -1311.8181    419.13318    425.33054    78.889702    38776.854 
   62200    294.75547   -1299.9748    412.40001    434.73337    233.41491    38776.854 
   62300    291.74584   -1324.7575     421.0421    405.09121    52.699481    38776.854 
   62400    298.98514   -1327.8531    411.58467    425.01449    49.852949    38776.854 
   62500    295.58491   -1328.9859    421.65583    418.69909    561.87373    38776.854 
   62600     312.6324   -1365.1321    422.24782    459.62189    91.411796    38776.854 
   62700    302.70748   -1340.3124    431.24428    448.91376    11.821439    38776.854 
   62800    302.14386   -1302.2037    414.82247    468.07215    621.22875    38776.854 
   62900    300.88736   -1308.2092    417.94016    459.54751    288.68392    38776.854 
   63000    300.00173   -1329.7094    440.23508    456.36917   -353.93442    38776.854 
   63100    300.53223   -1309.2728    431.56426    470.51482   -33.108149    38776.854 
   63200    300.71778   -1346.0063     419.4489    422.49836   -443.19003    38776.854 
   63300    283.16317   -1357.1732    414.40439    327.53487   -43.613149    38776.854 
   63400    293.91812   -1391.7059    416.38802    343.23386    95.160273    38776.854 
   63500    310.10585   -1370.1957    428.98242    449.95852    133.77145    38776.854 
   63600    302.36961   -1354.9992    434.73219     436.1991   -346.17964    38776.854 
   63700    297.00557   -1349.8989    412.54228    395.04574    -69.03012    38776.854 
   63800    306.48226   -1335.5833    399.31387    438.64653   -108.35831    38776.854 
   63900    294.69307   -1320.3109    415.92648    417.64383    206.22522    38776.854 
   64000    302.70478   -1336.3047    436.65999    458.32496    -125.8204    38776.854 
   64100    294.17811   -1332.2514    426.32996    413.79659   -229.64685    38776.854 
   64200     312.3131   -1298.7445    435.42225    537.75157    328.11103    38776.854 
   64300    296.66085   -1348.3502    400.12393    382.62967    45.389322    38776.854 
   64400    296.00927   -1325.0425    423.29192    426.18225   -342.37309    38776.854 
   64500    288.97914   -1330.1114    400.82803    367.11148    149.80824    38776.854 
   64600    309.82491   -1303.3691    421.89022    508.43253   -943.81716    38776.854 
   64700    310.13263   -1307.0303    394.72532    478.98692   -318.76243    38776.854 
   64800    298.95962   -1316.0053    413.32135    438.48452   -333.93542    38776.854 
   64900    292.79015   -1333.5892    423.78322    403.68554   -40.223951    38776.854 
   65000    296.11612   -1345.3018    421.39946    404.50988    132.94246    38776.854 
   65100    306.58552   -1370.1775    410.01077    415.21245    898.55791    38776.854 
   65200    304.46031   -1380.1756    439.99671     425.6663    1030.4002    38776.854 
   65300    301.17603   -1370.8705    433.66986    413.91088    764.64344    38776.854 
   65400    306.85734   -1340.9063    415.94829    451.64057    266.68584    38776.854 
   65500    300.68345   -1330.9006    416.41733    434.41847    276.57455    38776.854 
   65600    298.16911   -1351.7464    388.03195    373.90772    386.90157    38776.854 
   65700    305.15537   -1349.6824    406.54771    425.82864    173.62076    38776.854 
   65800    300.84351   -1368.5986    415.37396    396.39524    299.90797    38776.854 
   65900    307.36637   -1351.6643    391.76582     418.9836    282.90174    38776.854 
   66000    299.58734   -1392.4721    405.77595    357.28829    268.83106    38776.854 
   66100    310.88419   -1409.4989    434.00035    419.16499    414.37521    38776.854 
   66200    294.97008   -1448.3328    404.77919    279.71736   -189.23211    38776.854 
   66300    302.65068   -1429.9457    414.12958    341.91094    -209.1153    38776.854 
   66400    297.94247   -1399.8752    393.60789    330.33811   -145.07107    38776.854 
   66500    299.31715   -1431.8438    403.52762    314.45619   -284.85152    38776.854 
   66600     308.8961   -1402.0499    405.17834    388.87315    298.02801    38776.854 
   66700    295.21883   -1414.3083    399.41319    309.49172   -102.12309    38776.854 
   66800    304.46768   -1409.8367    401.13521    357.17683   -48.689643    38776.854 
   66900    301.30374   -1389.6722    390.76489    352.77715   -227.11088    38776.854 
   67000    289.18677   -1381.9371    398.02661    313.41582    -404.3316    38776.854 
   67100    300.08513   -1380.5429    413.66939    379.34418   -387.44203    38776.854 
   67200    300.48161   -1403.5745    421.76427    366.18606   -262.23009    38776.854 
   67300    298.49798   -1373.6033      413.274    378.76823   -636.18194    38776.854 
   67400    310.49405   -1354.6527    406.68541    444.94601   -414.47007    38776.854 
   67500    300.93762   -1336.9796    405.16693    418.22931    16.450478    38776.854 
   67600    282.32374    -1360.926     397.3729    302.98478   -282.70801    38776.854 
   67700    296.70874    -1336.497    441.66701    436.24079    43.585484    38776.854 
   67800    302.57319   -1400.7149    406.77648    363.44095   -165.26464    38776.854 
   67900    301.19557   -1425.6728    397.35036    322.87671    427.98418    38776.854 
   68000    303.07724   -1383.4298    426.18108    402.39187    1047.9991    38776.854 
   68100    302.76646   -1332.4778    421.18878    446.95735    666.96056    38776.854 
   68200    298.07514    -1369.219    430.11028    398.09189    122.94086    38776.854 
   68300      300.252   -1398.6553     410.8831    359.19405    404.00036    38776.854 
   68400    295.09264   -1401.0774    398.29076    321.03412   -97.178375    38776.854 
   68500    286.22674   -1382.0315    408.22066    310.23641    -378.4387    38776.854 
   68600    302.79345   -1359.0917    430.84447    430.12027     445.9387    38776.854 
   68700      291.399   -1358.0326    416.91708    366.13511   -20.445643    38776.854 
   68800    290.66602   -1372.8458    396.94009    328.05668   -349.05933    38776.854 
   68900    299.68335   -1440.3741    418.23355     322.2747    -247.1394    38776.854 
   69000    303.21077   -1391.9701    430.14168    398.41118    139.24073    38776.854 
   69100    288.35448   -1404.7254    427.13932    316.00647    196.34395    38776.854 
   69200    307.04516   -1410.6258    435.68281    402.49822    547.50519    38776.854 
   69300    301.44578   -1403.2105    431.98247    381.09368     261.4709    38776.854 
   69400     304.0382   -1411.2094    406.62108    359.36329     288.0323    38776.854 
   69500    300.36271   -1414.7055     434.4232    367.18064    391.31955    38776.854 
   69600    301.12617   -1381.5936    395.98578    365.28006   -83.061331    38776.854 
   69700    294.04657   -1393.2118    402.96666    328.88279   -363.66248    38776.854 
   69800     306.8857   -1420.2313    401.63634    358.13082   -105.14052    38776.854 
   69900    297.27977   -1391.4922    410.36108    352.50132    680.90606    38776.854 
   70000    294.07785   -1352.2299    433.70515    400.74356    879.59298    38776.854 
   70100    300.27338   -1424.9096    419.81672    341.96924    412.59001    38776.854 
   70200    302.47625   -1359.2849    445.63526    443.29483    90.056662    38776.854 
   70300    291.13185   -1345.4684    425.59844    386.18224    33.051612    38776.854 
   70400    298.01848    -1346.578     452.8444    443.21281   -362.84109    38776.854 
   70500    294.43118   -1360.8346     423.6109    383.62971   -786.44913    38776.854 
   70600    301.14683   -1367.5676    420.15604    403.56903   -42.056831    38776.854 
   70700    297.91016   -1380.5767    415.99827    371.88201   -142.04002    38776.854 
   70800    298.30098   -1399.9183    427.81726    366.11267   -243.20012    38776.854 
   70900    303.07529   -1398.1103    403.92898    365.45053   -66.286922    38776.854 
   71000    293.86067   -1393.4959    417.34551    342.14363    569.00701    38776.854 
   71100    300.15896   -1389.3797    409.93977     367.1089   -149.78401    38776.854 
   71200    307.47563   -1375.0355    403.01902    407.35583    106.34693    38776.854 
   71300    298.60833   -1435.0801    426.56066    331.07311   -75.110655    38776.854 
   71400    299.80891   -1416.2802    413.76854    342.46686   -712.98639    38776.854 
   71500     304.2875   -1420.9153    412.14646    356.30114   -477.85272    38776.854 
   71600    305.31691   -1402.0279    433.10054    400.76065   -272.83231    38776.854 
   71700    298.76009   -1372.7122    406.66301    374.22413    508.85411    38776.854 
   71800     297.6385   -1383.9187    437.91852    389.24156    317.29267    38776.854 
   71900    307.45784   -1389.9724    422.22071    411.54082    559.61063    38776.854 
   72000    288.27993     -1424.02     422.4725    291.71057   -211.25822    38776.854 
   72100    297.43145   -1411.6008    409.21497    331.92713    173.38077    38776.854 
   72200    294.68289   -1374.8229    408.26875    355.42837     596.0884    38776.854 
   72300    291.32374   -1387.2014    432.99372    352.70528    460.19891    38776.854 
   72400    289.37974   -1455.6737    445.47292    287.99122    430.64671    38776.854 
   72500      305.613   -1417.3294    428.86555    382.55244    267.71924    38776.854 
   72600    297.02479   -1400.9909    423.74846    355.24611   -98.172048    38776.854 
   72700    291.42737   -1419.4527    417.57241    305.49759   -411.30801    38776.854 
   72800    302.78455    -1400.027    399.14393    357.44447    -177.5394    38776.854 
   72900    308.47067   -1379.7205    442.44635    446.56204    507.91604    38776.854 
   73000    294.84931   -1356.7119    455.07599    421.09317   -84.916867    38776.854 
   73100    293.13113   -1378.8875    436.37706     372.5107    194.53265    38776.854 
   73200    298.23346   -1388.4374     410.8591    360.33252    344.64268    38776.854 
   73300    298.06937   -1368.3773    421.12347    389.92086   -114.74042    38776.854 
   73400    302.32513   -1392.6431    458.14091    421.76437     822.4545    38776.854 
   73500    297.49103   -1425.4388    430.73055    339.87193    352.28061    38776.854 
   73600    308.24918   -1421.8014    409.19882    370.23995     412.4913    38776.854 
   73700    305.57053   -1402.9588    411.39098    379.25802    287.03788    38776.854 
   73800    291.42048   -1408.2807    427.47351    326.53976   -59.313555    38776.854 
   73900    296.82491   -1413.2113    429.99779    348.37837    467.52835    38776.854 
   74000    298.41892   -1386.2011    441.07868    393.62036    718.06957    38776.854 
   74100    300.36034   -1385.6961     450.5951    412.35128    775.19264    38776.854 
   74200    294.65223   -1358.8953    463.71687    426.66656    365.98248    38776.854 
   74300    294.40162   -1378.6773    437.89197    379.93539    246.92862    38776.854 
   74400    298.68691   -1380.6346    437.22788    396.53835    37.468836    38776.854 
   74500    302.87264   -1358.1035    430.39708    431.01636    420.39502    38776.854 
   74600    287.42408   -1374.0615    421.88436    337.24148    91.609156    38776.854 
   74700    297.63991   -1379.9169    412.92385    368.25501     119.3115    38776.854 
   74800    323.23462   -1402.5042    435.33606    482.90083    363.12889    38776.854 
   74900    307.99633   -1377.0977    430.44781    435.05833    541.44075    38776.854 
   75000    302.92809   -1356.9144    446.64715    448.70427    229.51129    38776.854 
   75100    292.69068   -1336.4951    455.62979    432.17993    -13.95739    38776.854 
   75200    306.43912   -1364.4612    420.76356    431.02478    206.98054    38776.854 
   75300    303.72058   -1372.3115    424.19026    414.40542    342.05208    38776.854 
   75400    311.09029   -1396.6821    416.20003      415.106   -254.20917    38776.854 
   75500    298.11035   -1377.7651    425.44846    385.04194   -250.39883    38776.854 
   75600    312.55515   -1365.0042    415.07008    452.22555   -78.586473    38776.854 
   75700    294.64309   -1401.2159    426.25548     346.8436   -116.81944    38776.854 
   75800    292.69162   -1427.3024    412.52315    298.27024    414.56452    38776.854 
   75900    313.65536   -1401.6829    440.05265    445.46503    394.44969    38776.854 
   76000    300.26128   -1380.2506    443.67462    410.43193    177.39216    38776.854 
   76100    302.53996   -1388.9032    446.99028    415.31741    278.00115    38776.854 
   76200    302.14955   -1378.2147    441.44981    418.71395    119.94719    38776.854 
   76300    307.76685   -1409.6366    400.32296    371.36514    518.18999    38776.854 
   76400    305.94229   -1332.8904    424.90613    464.50927     717.9056    38776.854 
   76500    294.47071   -1346.9052    471.70715    445.83261    605.48556    38776.854 
   76600    306.42766   -1360.1731    429.46599     443.9639    836.80845    38776.854 
   76700     293.0501   -1377.4003    430.27141    367.52884    721.87198    38776.854 
   76800    306.22522   -1365.8087    425.30115    433.25524    765.70149    38776.854 
   76900    306.14848   -1382.4522    427.19626    418.16265    275.16862    38776.854 
   77000    304.56364   -1359.3805    428.33973    435.26795   -217.72051    38776.854 
   77100     307.7554   -1345.4145    435.58608    470.79895   -334.78778    38776.854 
   77200    294.93251   -1391.2395     439.0269    370.88982   -48.655369    38776.854 
   77300    303.26147   -1422.3967    438.27957    376.34993    174.00487    38776.854 
   77400    307.37536   -1375.7764    431.45264    434.59869    43.946707    38776.854 
   77500    293.56281   -1371.0748    430.15923    376.04219   -191.88933    38776.854 
   77600    298.78337   -1332.0445    407.27709    415.61037   -941.55463    38776.854 
   77700     290.3169   -1296.0523    440.52327    446.86715   -312.71055    38776.854 
   77800    300.39207   -1362.6928    416.90449    401.80632   -498.37868    38776.854 
   77900    295.79327   -1387.6161    419.28022    358.62799    23.619662    38776.854 
   78000    304.30502   -1349.4193    411.91899    427.64826   -6.0699749    38776.854 
   78100    305.23968   -1324.7288    440.95552    485.56831    666.26178    38776.854 
   78200     298.0215    -1352.143    444.35845    429.17543    36.327079    38776.854 
   78300     307.1893   -1331.1587    428.69165     475.6207    155.83476    38776.854 
   78400     298.1187    -1381.873    418.31367    373.83672   -81.377245    38776.854 
   78500    307.23741   -1402.9712    419.31293     394.6454   -394.67503    38776.854 
   78600     298.6814   -1369.5288     432.5008    402.89232    -353.6695    38776.854 
   78700    297.02812   -1365.1269    440.94713     408.3238   -757.20919    38776.854 
   78800    308.12305   -1358.9416    445.71829    469.05336   -721.67528    38776.854 
   78900    300.46324   -1381.9591    404.81073    370.76553   -911.95213    38776.854 
   79000    296.18201   -1361.0138    427.45656    395.15055   -293.66698    38776.854 
   79100    300.47558   -1350.6601    416.52526    413.83441    56.379239    38776.854 
   79200    301.61043   -1394.7789    422.48501    380.76649    441.05631    38776.854 
   79300    290.58834   -1380.7131    443.74908    366.64988     68.37362    38776.854 
   79400    296.03309   -1427.4335    397.35801    297.96425    312.39164    38776.854 
   79500    303.55033   -1389.2329    441.82602    414.35604    203.56217    38776.854 
   79600    306.53301   -1398.0237    426.82968    403.94953   -526.50556    38776.854 
   79700    305.66382   -1377.1614    416.55357    410.63653   -624.36649    38776.854 
   79800     303.1755   -1444.2987    395.34074     311.1234    -389.4634    38776.854 
   79900    294.36095    -1421.552      367.815     266.8013   -114.79238    38776.854 
   80000    308.23891   -1421.6979    436.97974    398.07836    76.097167    38776.854 
   80100    298.48368   -1431.0767    421.57209    329.52877   -112.32299    38776.854 
   80200    295.09877   -1395.2527     409.3383    337.93385   0.51965082    38776.854 
   80300    286.08873   -1386.4567    413.70773    310.67918    244.66395    38776.854 
   80400    302.05375   -1384.4127    422.85744     393.4938    350.84584    38776.854 
   80500    299.91599    -1424.234    420.95715    342.18202    309.66151    38776.854 
   80600    301.88088   -1410.2775    418.34472    362.34082    404.74083    38776.854 
   80700    295.84334   -1408.2294    426.76235    345.72142    1022.6409    38776.854 
   80800    297.83416   -1380.4539     438.7382    394.40387    816.75535    38776.854 
   80900    299.85661   -1394.4418    432.05537    382.80603    899.99205    38776.854 
   81000    299.12471   -1379.2104    416.80859    379.50722    138.77915    38776.854 
   81100    299.70741   -1407.1644    413.81913    351.17781    749.68788    38776.854 
   81200    305.95901   -1369.6169     444.7841    447.73578    387.18409    38776.854 
   81300    302.30898   -1370.3779    435.36109    421.17724    374.33848    38776.854 
   81400    303.77202    -1353.883    418.51865    427.39313   -65.489599    38776.854 
   81500    294.66619   -1363.1856    423.38043    382.10242   -369.38707    38776.854 
   81600     288.5404   -1381.1158    437.30235    350.61319   -888.04692    38776.854 
   81700     293.7736   -1393.0887    413.99951    338.81416   -349.77353    38776.854 
   81800      294.893   -1394.0355    443.62823    372.51782   -233.48906    38776.854 
   81900    287.38246   -1402.4264    426.61963    313.42514   -425.58161    38776.854 
   82000    300.46038   -1390.1524    438.18704     395.9357   -599.20532    38776.854 
   82100    300.73258   -1415.9549    433.65621    366.82345   -522.82514    38776.854 
   82200    304.45671   -1388.3916    415.57101    393.00854   -429.34795    38776.854 
   82300    297.43516   -1396.1072    417.80941    356.03174   -192.74455    38776.854 
   82400    299.39857   -1333.7812    439.49588    448.85231    268.73897    38776.854 
   82500    302.75646   -1395.3237    422.61145    385.48924   -221.36312    38776.854 
   82600    306.22376   -1402.6797    442.17996    413.25658    270.99481    38776.854 
   82700    292.60981    -1414.305    417.25502    315.63245    309.46615    38776.854 
   82800    302.73602   -1413.5127    458.31567    402.91284    109.41159    38776.854 
   82900    301.16129   -1396.8671    433.29829    387.47663    199.13259    38776.854 
   83000    307.63726   -1367.7695    430.43394    442.76188    367.21416    38776.854 
   83100      300.657   -1409.2663    431.05345    370.57024    678.73938    38776.854 
   83200    302.95704   -1410.7492    432.23658    380.58879    437.21462    38776.854 
   83300    295.38118   -1445.9068    426.66934    305.87765    445.40659    38776.854 
   83400    293.68576   -1408.2694    421.10509    330.34501    277.14397    38776.854 
   83500    307.46134   -1409.3725    418.80233    388.73801    388.56469    38776.854 
   83600    304.26143   -1456.3496      398.163     306.7664    370.81358    38776.854 
   83700    300.32159   -1431.4299    427.48772     343.3363    369.50265    38776.854 
   83800    304.95957   -1423.0995    425.97794    370.96341    930.85754    38776.854 
   83900     312.2382   -1437.9858     444.0131    406.76508      608.257    38776.854 
   84000    300.79113   -1452.8921    412.53607    309.02877    287.91829    38776.854 
   84100    312.99567   -1432.8057    460.85316    432.18328     135.6744    38776.854 
   84200     295.2322   -1402.6647    424.14898    345.93109   -146.07601    38776.854 
   84300     301.0911   -1444.9294    419.84836    325.64948   -381.57022    38776.854 
   84400    296.28227   -1430.0077    450.84136    349.99123   -534.61423    38776.854 
   84500    304.88046   -1461.5637    430.44474    336.61108   -334.17001    38776.854 
   84600    302.83974   -1459.4643    431.49733    330.60813   -305.21568    38776.854 
   84700    301.60951   -1404.9184    427.44409    375.58184    97.766835    38776.854 
   84800    305.45945   -1403.1056    431.21837    398.44025    128.80821    38776.854 
   84900    311.65959   -1394.6888    428.38891    431.84213    913.46662    38776.854 
   85000    299.54752   -1390.2399    445.63827    399.20427    527.50893    38776.854 
   85100    298.50776   -1425.6838    435.00267    348.46024     513.5449    38776.854 
   85200    303.14194   -1418.3012     436.0044    377.63407    425.24688    38776.854 
   85300    300.73216   -1385.2226    444.06461    407.96235    359.07136    38776.854 
   85400    297.34526   -1357.9083    431.15667    407.17463    41.215687    38776.854 
   85500     307.3854   -1367.8271    433.06989    444.21027    463.42296    38776.854 
   85600    303.15761   -1382.1786    431.90033    409.72288    446.97555    38776.854 
   85700    291.66673   -1419.7339    429.60029    318.31814    209.58344    38776.854 
   85800    305.70595   -1386.5803    433.68692       418.54     925.0973    38776.854 
   85900    293.29427   -1414.5218     428.0244     329.2556     770.4859    38776.854 
   86000    314.43053   -1391.7984    452.49433    471.26874    622.12396    38776.854 
   86100    301.52256   -1387.2565    453.66307    419.07269    210.56259    38776.854 
   86200    287.96278   -1376.6511    460.45214    375.63637     184.2011    38776.854 
   86300    298.53829   -1409.3548    446.61717    376.54073    211.50258    38776.854 
   86400    292.86454   -1345.8968    421.07136    388.99974    44.397826    38776.854 
   86500    305.35456   -1386.4858    429.00993    412.38107    -7.423928    38776.854 
   86600    300.45457    -1438.032    445.03169    354.87467    158.98734    38776.854 
   86700    294.37865   -1408.4305    412.30382    324.49099    420.61183    38776.854 
   86800    293.04223   -1395.0695    421.28501    340.83793   -129.50962    38776.854 
   86900     301.6928   -1438.4451     424.0929     339.0777   -126.95716    38776.854 
   87000    306.39659   -1432.3979    413.68332    355.81702   -114.84174    38776.854 
   87100    303.01032   -1383.0225    435.09722    411.41507    237.33532    38776.854 
   87200     295.2436   -1389.6125     411.2864    346.17187    87.001665    38776.854 
   87300    293.93069   -1420.7597    436.43672    334.28515   -402.87361    38776.854 
   87400    298.54638   -1451.3893    422.18657    310.11186    77.233188    38776.854 
   87500    299.72494   -1431.3174    426.89146    340.17584   -36.544552    38776.854 
   87600    292.91085   -1434.5396    428.97474    308.46812   -426.40886    38776.854 
   87700    303.34814    -1435.911    420.94583    345.89071     69.05405    38776.854 
   87800    292.17135   -1430.8495    444.92696    324.79291    137.49292    38776.854 
   87900     301.1574   -1453.6554    421.96826    319.34083    272.33506    38776.854 
   88000    303.26839   -1427.6015    429.48451    362.38113    871.43666    38776.854 
   88100    299.90547   -1418.6383    439.24613     366.0195    261.80394    38776.854 
   88200    290.03664   -1399.5957    445.48793    347.03115    611.90128    38776.854 
   88300    295.12941   -1407.0441    432.65035    349.59197    1000.9699    38776.854 
   88400    304.07484   -1418.5698    438.48885    384.03499    1214.0662    38776.854 
   88500    304.15822   -1416.4848    442.18025    390.18544    644.82946    38776.854 
   88600    307.97946   -1381.1908    430.42392    430.86568    263.02373    38776.854 
   88700    304.95617    -1392.518    422.15359    397.70526     402.7181    38776.854 
   88800    291.52015   -1389.6811    436.95909    355.07212    291.53086    38776.854 
   88900    292.53729   -1377.8608    436.85147    371.34786    116.15713    38776.854 
   89000    297.17048   -1416.7579    427.33367    343.71789     440.4446    38776.854 
   89100    291.23734   -1395.8275    442.83993    353.53781    17.107521    38776.854 
   89200    297.18375   -1391.4059    481.68787    423.48366    346.22516    38776.854 
   89300    316.67372    -1374.208    478.71896    525.14703    229.50255    38776.854 
   89400    288.85251   -1384.2378    429.91689    341.50583   -116.32374    38776.854 
   89500    302.35401   -1381.1127     472.0398    447.32324   -294.84371    38776.854 
   89600    291.11929   -1371.5847    448.86771    383.27879    17.150886    38776.854 
   89700    298.48594   -1402.1069    434.14539    371.08199    437.26189    38776.854 
   89800     294.0306   -1393.8879    448.46858    373.63691    456.81999    38776.854 
   89900    292.69385   -1398.7046    428.52719    342.88208    117.76476    38776.854 
   90000    304.51828   -1375.7057    459.01174    449.41129    139.59602    38776.854 
   90100    302.03434   -1370.8502    465.77468    449.88651    -240.6417    38776.854 
   90200    295.14285   -1369.3342    436.46045    391.17228   -196.92504    38776.854 
   90300    292.33489   -1368.0729    466.39972    409.77592   -476.66065    38776.854 
[...]
  984000    293.96136   -1449.6771     460.7906     329.8592   -406.89032    38776.854 
  984100    300.75536   -1424.5179    497.97949    422.68589   -493.55907    38776.854 
  984200    299.29408     -1418.75    470.69646    394.61537   -246.24602    38776.854 
  984300    300.37386   -1429.4878    470.42884    388.45399   -526.44495    38776.854 
  984400    301.43903   -1431.6793     481.3079    401.91996    -710.2766    38776.854 
  984500    303.97282   -1444.3715    475.50371    394.79051   -739.16727    38776.854 
  984600    296.94714   -1451.7606    464.66324    345.04286   -254.78505    38776.854 
  984700    301.89338   -1456.5315    471.24817     369.0463    118.87016    38776.854 
  984800    303.72876   -1428.1591    507.72202    442.12632    436.02405    38776.854 
  984900    292.42483   -1458.5028    489.98276    343.33257    495.50762    38776.854 
  985000    282.18302   -1466.0292     489.3174    289.19487    82.888678    38776.854 
  985100    301.24669   -1457.4775    470.40174    364.35272   -33.910559    38776.854 
  985200    299.77524   -1475.0135    476.50691    346.32082    24.094034    38776.854 
  985300    298.77472   -1462.5032    467.80586    345.64162    174.83825    38776.854 
  985400    304.40124   -1458.0895     506.7904    414.28108   -33.183557    38776.854 
  985500    304.77538   -1474.8401    505.09861    397.51717   -46.192666    38776.854 
  985600    307.06344   -1455.9736     487.7037    409.25329    52.178258    38776.854 
  985700    303.18077   -1491.1246     456.8067    325.78709    22.545282    38776.854 
  985800    293.47137   -1500.6198    462.94605    278.87379   -350.95482    38776.854 
  985900    310.36826   -1474.4167    483.66617    401.59845   -316.61321    38776.854 
  986000     291.7978   -1476.8512     491.8258    324.01431   -160.26634    38776.854 
  986100    294.09589   -1470.1857    481.58253    330.74604    413.80486    38776.854 
  986200    296.66392   -1517.0065    488.26102     302.1242    353.13873    38776.854 
  986300    302.23544    -1461.269    488.65779    383.25302    605.37896    38776.854 
  986400      290.328   -1505.9964    475.22122    271.67082    43.299811    38776.854 
  986500    297.71004   -1530.6122    493.46193    298.41246    516.39172    38776.854 
  986600    290.74996   -1506.6847    463.85381    261.50806   -115.70772    38776.854 
  986700    306.10012   -1534.2017    470.31043    309.31036   -130.16588    38776.854 
  986800    300.66125   -1485.8856     469.0584    331.97499    430.06799    38776.854 
  986900    309.33748   -1455.4381     490.4268    422.71345    101.49816    38776.854 
  987000    313.19897   -1507.5817    494.15328    391.61949   -157.21093    38776.854 
  987100    293.10384   -1471.3586      468.738    312.27817   -206.61983    38776.854 
  987200    300.62944   -1480.8582    511.84486    379.64616     -485.379    38776.854 
  987300    299.88079   -1477.7613    497.43782    364.97748   -677.00536    38776.854 
  987400    303.88605   -1488.9822    476.82859    351.11542   -500.80901    38776.854 
  987500    301.87061   -1525.7532    513.16774    341.64212   -605.76759    38776.854 
  987600    286.16771   -1516.0004    462.49751    230.27951  -0.52207812    38776.854 
  987700    305.78074   -1548.7302    484.17401    307.21262   -601.11788    38776.854 
  987800     295.4386   -1534.8754    465.77321    256.27059   -184.89412    38776.854 
  987900    298.54694   -1518.6353    481.69674    302.37854     -297.052    38776.854 
  988000    308.97729   -1484.0287    474.37995    376.46018    431.65811    38776.854 
  988100    300.24849   -1516.0394    485.35607     316.2672    744.95584    38776.854 
  988200    299.19341   -1523.9992    499.70863    317.92667    785.61857    38776.854 
  988300    306.19906   -1528.9197    482.41912    327.14486    535.13131    38776.854 
  988400    289.73732   -1477.5401    481.54267    303.79866    298.71084    38776.854 
  988500    295.28599   -1488.8926     480.5487    316.34418   -144.79241    38776.854 
  988600    298.71139   -1499.8974    487.61428    327.77176   -803.76945    38776.854 
  988700    296.35955   -1507.7188     452.6147    274.40011   -803.10381    38776.854 
  988800     300.8408   -1543.3743    515.55319    321.78653   -633.81178    38776.854 
  988900     306.5315   -1561.3288    460.01412    273.82219   -314.32604    38776.854 
  989000    299.64873   -1526.2841    466.18752    284.16326   -138.07224    38776.854 
  989100    306.62006   -1501.7951    480.30667    354.04574    -168.0749    38776.854 
  989200    295.79633   -1487.8447    458.10526    297.23817   -109.87301    38776.854 
  989300     291.4355   -1527.9289    468.47455    247.96006   -577.87577    38776.854 
  989400    288.22783   -1531.9812    455.16237    216.20548   -764.84693    38776.854 
  989500    299.95122   -1483.4518    466.60716    328.77225   -347.13306    38776.854 
  989600    294.90273   -1456.7343    484.57323    350.80771   -646.43994    38776.854 
  989700      294.158   -1454.0566    453.14543     318.7166   -904.79331    38776.854 
  989800    306.54658   -1505.8526    481.35771    350.70958    105.05158    38776.854 
  989900    308.11397   -1531.5225     488.2841    338.99761    375.87963    38776.854 
  990000    298.88246    -1530.913    464.41754     274.3269    1074.0542    38776.854 
  990100    307.36591   -1518.2355     489.4726    350.11723    649.67019    38776.854 
  990200    302.89175   -1520.6845    482.71316    320.83712    604.85119    38776.854 
  990300    295.61554   -1516.8611    456.86367    266.16916    496.16199    38776.854 
  990400    304.44206   -1481.7691    479.03898    363.03326     629.9748    38776.854 
  990500    312.25364   -1479.8077    494.32232    415.32164    817.34394    38776.854 
  990600    286.87073   -1467.5848    461.85355    281.20504    590.84633    38776.854 
  990700    302.31317   -1461.9438    508.18861     402.4577    505.43213    38776.854 
  990800     310.9111   -1515.5691    495.93446    375.14959    15.443155    38776.854 
  990900    309.38929   -1495.7114    473.85088     366.0967    380.31755    38776.854 
  991000    301.86601   -1507.8841    493.71314    340.03597   -221.02768    38776.854 
  991100    294.64942   -1470.4976     501.3511    352.68584   -202.80852    38776.854 
  991200    303.58784   -1472.3894    475.36853    364.91038   -236.36666    38776.854 
  991300    297.57761   -1482.6393    489.11249    341.44175   -196.25273    38776.854 
  991400    301.56812   -1507.7959    486.95377    332.02838   -680.98947    38776.854 
  991500    296.20281   -1503.5106     502.2111    327.50159   -483.99309    38776.854 
  991600    296.05489   -1500.3838    474.29919    302.05287   -730.08508    38776.854 
  991700    294.85132   -1537.0925    488.23882    273.88446      96.5812    38776.854 
  991800    295.87109    -1518.595    469.45026    278.16818    2.8378668    38776.854 
  991900    285.36781   -1570.6274    477.33905    186.90563    61.499719    38776.854 
  992000    296.10838   -1581.7762    469.39002     215.9913    102.01853    38776.854 
  992100    306.13838   -1510.9977    487.05921    349.43476    173.65956    38776.854 
  992200    297.57772   -1538.5598    502.04496    298.45429    46.141098    38776.854 
  992300    304.94157   -1473.2184    497.05339    391.83921   -254.55884    38776.854 
  992400    303.24143   -1501.1703    488.25992    347.46683   -204.14512    38776.854 
  992500    298.97272   -1480.1369     484.3514    345.44173    -124.8167    38776.854 
  992600    299.44856   -1494.0403    505.04396    354.36562    104.41089    38776.854 
  992700    292.07947   -1512.7982    498.11797    295.62312   -225.00716    38776.854 
  992800    305.32649   -1496.2936    467.73886    341.17623    110.50798    38776.854 
  992900    307.12862   -1531.8976    497.09272    343.01067    281.78093    38776.854 
  993000    306.79904   -1508.2502    507.37317    375.46007    49.331235    38776.854 
  993100    295.29021   -1487.8216    514.14543    351.03086    446.49397    38776.854 
  993200    296.89034   -1515.3179    491.25327    307.82077    641.74064    38776.854 
  993300     294.3971   -1500.0281    502.22801    322.90038    265.23885    38776.854 
  993400    298.77878   -1498.1699    487.75169    329.93901    199.48233    38776.854 
  993500    298.80998   -1504.6393     513.2901    349.14797    170.57785    38776.854 
  993600    299.65373   -1530.5968    492.05902    305.74448    70.037402    38776.854 
  993700    301.13626   -1503.5274    489.37195    336.77772   -274.37983    38776.854 
  993800    306.63944   -1505.3939    488.68014    358.90726   -136.51609    38776.854 
  993900    305.31504   -1543.0979    467.57474    294.15646   -247.29036    38776.854 
  994000    302.44451   -1534.3974    488.01801    310.42275   -729.01238    38776.854 
  994100    304.29838   -1579.2646    497.24947    283.10365   -163.57699    38776.854 
  994200    296.52873   -1539.7026    485.47914     276.0398   -214.45344    38776.854 
  994300     301.6428   -1519.0934    480.32981    314.44189   -469.35424    38776.854 
  994400    295.62906   -1555.5567    485.52286    256.19333   -30.153465    38776.854 
  994500    304.52957   -1584.5586    490.02385    271.62121    67.071695    38776.854 
  994600     300.6968   -1571.0087    484.51335    262.46631   -128.91994    38776.854 
  994700    293.77761   -1552.4407    471.52586    237.00657    382.77458    38776.854 
  994800    308.11195   -1495.8146    514.33673    400.74903    412.77787    38776.854 
  994900    307.97163   -1504.8606    482.22125    358.95814    363.06648    38776.854 
  995000     293.6786   -1502.1597    486.51524    301.83277    266.86387    38776.854 
  995100     298.7124   -1529.5036    507.66035    318.21616    13.301353    38776.854 
  995200    300.70055   -1525.7327    474.84314    298.08892    352.03827    38776.854 
  995300    305.81991   -1554.5275    469.48708    286.90408    27.119577    38776.854 
  995400    297.72953   -1544.7123    502.85978    293.79762    120.16618    38776.854 
  995500    285.25506   -1544.4557    460.78201    196.01448   -658.12674    38776.854 
  995600    307.28083   -1530.4469    479.37522    327.42673   -286.10201    38776.854 
  995700    302.12394   -1521.7722    484.42539    318.01715    -221.5218    38776.854 
  995800    298.71796   -1534.2086    517.55865    323.43435   -675.39304    38776.854 
  995900    300.50332   -1527.4121    461.40516    282.08672   -585.17495    38776.854 
  996000    309.44149   -1530.9041    489.95673    347.24404   -763.55413    38776.854 
  996100    297.79924   -1559.1002    463.01925    239.88193   -446.77616    38776.854 
  996200    297.31995   -1528.9232    467.04478    271.93424   -233.37301    38776.854 
  996300    303.80785   -1542.6692    480.15001    300.39898    13.661833    38776.854 
  996400    301.29599   -1592.1452    487.48048    246.98494    378.45492    38776.854 
  996500    302.03809   -1580.4828    491.44757    265.94357   -127.39299    38776.854 
  996600    297.19558   -1532.3424    487.95031    288.86264   -68.843517    38776.854 
  996700    308.91237   -1528.8917    491.78947    348.71542    543.55971    38776.854 
  996800    290.80854   -1511.4896    507.36267    300.47483    25.660294    38776.854 
  996900    300.70913   -1529.7832    516.03562    335.26934    637.69116    38776.854 
  997000    301.87738   -1545.7025    491.20567    299.76108    95.336062    38776.854 
  997100    296.11966   -1533.5027    499.48069    294.40601    78.167887    38776.854 
  997200    307.61166   -1540.4017    463.92457    303.50537    246.00664    38776.854 
  997300    293.30693   -1551.2248    491.04252    255.62754    30.158792    38776.854 
  997400    301.71832   -1541.9406    493.31715    304.92086   -80.478701    38776.854 
  997500      307.313   -1532.9707     507.6657    353.33773     364.5783    38776.854 
  997600    299.51128   -1520.8683    486.72172    309.49667    677.80096    38776.854 
  997700    298.54645   -1504.9716    488.47346    322.81684    618.84504    38776.854 
  997800    301.61781     -1541.52    511.43975    323.01314    97.283558    38776.854 
  997900    301.79518   -1552.4517    492.98691    294.42431   -147.42411    38776.854 
  998000    294.27779   -1601.6057    494.74957    213.30911    143.90826    38776.854 
  998100    298.58281   -1609.1876    508.74952    239.03997    247.38587    38776.854 
  998200    307.65214   -1591.6421    480.05244    268.57449   -5.4561016    38776.854 
  998300    293.27474   -1544.1996    484.71087    256.17665   -18.679258    38776.854 
  998400    315.02662    -1574.158    468.36849    307.45742   -662.80344    38776.854 
  998500    298.54595   -1566.9805    477.26843    249.60061   -264.92214    38776.854 
  998600    294.10054   -1568.2248    463.34467    214.48995    -496.8579    38776.854 
  998700    302.16612   -1547.4646    463.41902    271.50765    -281.1611    38776.854 
  998800    305.01642   -1566.0015    499.63636    301.97482    144.11644    38776.854 
  998900    305.89523   -1571.6341    495.99292     296.6413    346.90242    38776.854 
  999000    309.44081    -1520.001    475.63729    343.82459   -53.321958    38776.854 
  999100    307.95042   -1525.3927    513.66913    369.77868   -1.9406745    38776.854 
  999200    294.69367   -1501.3934    494.57451    315.21205    117.10766    38776.854 
  999300    298.12744    -1523.613    492.53599     306.3582    105.30515    38776.854 
  999400    305.81851   -1508.2479    498.22877    361.91916    16.184758    38776.854 
  999500    299.90911   -1531.6914    485.68402    299.42061   -164.60783    38776.854 
  999600    292.65418   -1527.9035    505.92992      290.908   -394.13361    38776.854 
  999700    302.82349   -1523.9653    494.73946    329.27644    106.11224    38776.854 
  999800    321.93999   -1560.4649    480.58495    364.38123   -63.455823    38776.854 
  999900    296.69744   -1535.4811    486.33491    281.87385    13.186243    38776.854 
 1000000    305.27721    -1547.072    499.81531    322.25321     34.26567    38776.854 
 1000100    291.70151   -1549.9235    488.18448    246.86869    418.28531    38776.854 
 1000200    310.92727   -1594.2351    523.40959    324.03123    260.87566    38776.854 
 1000300    296.37127   -1596.9379    504.73525    237.35416    567.06426    38776.854 
 1000400    301.65057   -1590.4256    484.81722    247.63195    122.32167    38776.854 
 1000500    290.52802   -1581.3103     484.9891    207.02215   -286.42714    38776.854 
 1000600    294.52846   -1604.1946    475.86243    192.95755   -433.47229    38776.854 
 1000700    308.86499   -1608.6013    502.80779    279.81161   -53.556037    38776.854 
 1000800    299.00867    -1624.539    461.44036    178.28984    219.01342    38776.854 
 1000900    304.49756   -1604.0025    494.63484    256.64466   -226.71713    38776.854 
 1001000    294.84489   -1624.1679    469.54104    168.08249    257.65701    38776.854 
 1001100    293.96847   -1597.5359    479.16168    200.40332    688.71935    38776.854 
 1001200    292.89123   -1565.1329    504.85771    253.66972     285.0885    38776.854 
 1001300    292.75559   -1574.6901    499.45608    238.10245    -536.5526    38776.854 
 1001400    304.30951   -1562.5146    460.67383    263.32792   -177.48149    38776.854 
 1001500    291.08515   -1529.2827    502.47594    279.03587   -732.87734    38776.854 
 1001600    290.67184   -1552.2364    490.41531     242.1674   -259.98629    38776.854 
 1001700    307.64017   -1550.2275    504.04274    333.92568   -211.88326    38776.854 
 1001800    309.43749    -1545.823    498.48249    340.83286    368.22386    38776.854 
 1001900    294.35226   -1560.4865    491.50049    251.51326    63.951024    38776.854 
 1002000    304.95862   -1574.4495    477.81567    271.44686   -621.58392    38776.854 
 1002100    313.92137   -1567.5241    459.59925    300.36379    96.122489    38776.854 
 1002200    298.00677   -1537.1615    501.30531    301.03769   -676.57543    38776.854 
 1002300    291.32554   -1549.8594    467.16952    224.23117   -276.82921    38776.854 
 1002400     308.3069   -1510.4244     477.2259    349.90297   -365.75462    38776.854 
 1002500    306.48665   -1570.9657    496.11657    300.08645   -394.59956    38776.854 
 1002600    293.75115   -1571.6189     472.8054    218.98914   -537.65648    38776.854 
 1002700    304.32152   -1550.2403    483.68663    298.66888   -502.50931    38776.854 
 1002800    298.82193   -1562.9842    493.49486     271.0615   -946.06849    38776.854 
 1002900    296.17456   -1573.4173    487.80243    243.05945   -144.84477    38776.854 
 1003000    309.40405    -1543.969    479.77361    323.82799   -467.81234    38776.854 
 1003100    309.38388   -1527.2316     483.5851    344.28646   -433.06013    38776.854 
 1003200     303.7459   -1552.6907    471.07107    281.02067   -106.36835    38776.854 
 1003300    304.07719   -1519.5923    485.20962     329.7438   -276.89314    38776.854 
 1003400    304.44418   -1529.8992    494.87035    330.74402    75.371069    38776.854 
 1003500     306.0605   -1539.5967     464.9068    298.33397   -424.40694    38776.854 
 1003600    291.56937   -1522.2543    495.92126    281.68189   -548.37148    38776.854 
 1003700    295.66708   -1550.1645    489.27333    265.50653   -251.80874    38776.854 
 1003800    304.20256   -1555.2835    478.91761    288.32298   -245.30381    38776.854 
 1003900    308.27501   -1550.5062    491.05175    323.50401   -10.111222    38776.854 
 1004000    307.82955   -1488.6468    489.83975    382.15295   -343.40211    38776.854 
 1004100    296.08891   -1545.8828    501.74664    284.15393    49.540757    38776.854 
 1004200    301.14712   -1513.1911    520.99385    358.78461    432.38836    38776.854 
 1004300    293.43209    -1537.121    476.99288    256.24316    138.71868    38776.854 
 1004400    298.89849   -1544.3845    460.71101    257.22078     212.1239    38776.854 
 1004500    289.65313   -1568.9282    476.90819    207.39839   -476.15364    38776.854 
 1004600    298.65238   -1545.6349    483.85716    278.01244   -505.40221    38776.854 
 1004700      302.819   -1521.6387    471.98545    308.82886   -407.05545    38776.854 
 1004800    299.78722   -1563.8733    466.44041    247.44834   -631.00515    38776.854 
 1004900    304.79971   -1515.5558    505.64037    357.45236   -112.29743    38776.854 
 1005000    293.78069   -1570.5792    474.80817    222.16416    144.39897    38776.854 
 1005095    297.90685   -1537.5253    513.47776    312.39813    363.64251    38776.854 
Loop time of 598.371 on 32 procs for 1000000 steps with 1506 atoms

Performance: 144.392 ns/day, 0.166 hours/ns, 1671.205 timesteps/s
100.0% CPU use with 32 MPI tasks x no OpenMP threads

MPI task timing breakdown:
Section |  min time  |  avg time  |  max time  |%varavg| %total
---------------------------------------------------------------
Pair    | 229.92     | 267.63     | 318.39     | 132.1 | 44.73
Bond    | 1.3696     | 1.4947     | 1.6544     |   6.2 |  0.25
Neigh   | 38.772     | 38.845     | 38.907     |   0.7 |  6.49
Comm    | 228.31     | 278.91     | 316.45     | 129.1 | 46.61
Output  | 0.38646    | 0.40387    | 0.87128    |  13.2 |  0.07
Modify  | 7.6678     | 8.0119     | 8.372      |   7.3 |  1.34
Other   |            | 3.075      |            |       |  0.51

Nlocal:        47.0625 ave          79 max          16 min
Histogram: 3 1 4 4 4 4 6 1 2 3
Nghost:        1908.50 ave        2046 max        1788 min
Histogram: 10 6 0 0 0 0 0 3 9 4
Neighs:        5345.69 ave       10189 max        1586 min
Histogram: 3 5 5 4 1 4 5 0 2 3

Total # of neighbors = 171062
Ave neighs/atom = 113.58699
Ave special neighs/atom = 2.0066401
Neighbor list builds = 49694
Dangerous builds = 0
The system volume is 38776.854026712
Lattice vectors
33.8473124598993 0 0
0 33.8473124598993 0
0 0 33.8473124598993
Total wall time: 0:10:02
