LAMMPS data file
 1520 atoms
 1022 bonds
 537 angles
 51 dihedrals
 7 impropers
 8 atom types
 12 bond types
 6 angle types
 6 dihedral types
 1 improper types
 0 15 xlo xhi
 0 15 ylo yhi
 0 15 zlo zhi
 0 0 0 xy xz yz

# Atom types
#
# 1 C_3
# 2 O_3
# 3 C_R
# 4 N_2
# 5 S_3
# 6 C_2
# 7 H_
# 8 H__HB

# Bond Coeffs
#
# 1 C_3*C_3
# 2 C_3*O_3
# 3 O_3*C_R
# 4 C_R*C_R
# 5 C_R*N_2
# 6 C_R*S_3
# 7 N_2*C_2
# 8 S_3*C_2
# 9 C_3*H_
# 10 C_R*H_
# 11 C_2*H_
# 12 O_3*H__HB

# Angle Coeffs
#
# 1 C_3
# 2 O_3
# 3 C_R
# 4 N_2
# 5 S_3
# 6 C_2

# Dihedral Coeffs
#
# 1 A1
# 2 A2
# 3 I1
# 4 D1
# 5 E1
# 6 C1

# Inversion Coeffs
#
# 1 1

 Masses

 1 12.01
 2 16
 3 12.01
 4 14.01
 5 32.06
 6 12.01
 7 1.01
 8 1.01

 Atoms # full

1 1 1 0 9.13304202640616 5.62810887720865 -0.536894071707812
2 1 1 0 10.364933833977 6.17024492414098 0.248108540425725
3 1 2 0 7.92944479861677 6.39270184867983 -0.360481596994283
4 1 2 0 10.104651537122 7.3499949585298 1.02593235871846
5 1 3 0 7.54789267403529 9.79677888096709 2.00072703090833
6 1 3 0 6.44425433500909 9.31190552125061 1.29790058599555
7 1 3 0 8.79395802796289 9.14941972941773 1.92312437214871
8 1 3 0 6.55214301959567 8.16278160078809 0.494140729347406
9 1 3 0 8.91375830484863 7.99628035154578 1.12023633583282
10 1 3 0 7.79645178570773 7.50459883985282 0.408086805646515
11 1 4 0 7.26683898786378 10.8943358155702 2.71239895026028
12 1 5 0 5.02030903457918 10.2607396370803 1.53913016963149
13 1 6 0 5.98361443680277 11.2769472108782 2.58515649769537
14 1 7 0 8.9215272224461 4.60317460413939 -0.224802028243499
15 1 7 0 9.35841337384513 5.60951831006659 -1.60536105134119
16 1 7 0 11.1698985897384 6.40700508175036 -0.450913533439437
17 1 7 0 10.7331131550716 5.40039950874127 0.929609687824875
18 1 7 0 9.59882745116942 9.50953602408742 2.44045025193878
19 1 7 0 5.74160414583107 7.81041391566325 -0.019277928860653
20 1 7 0 5.57498347024149 12.375948404046 3.26142881753621
21 2 8 0 10.9306574687082 15.1661011208221 6.14890691475011
22 2 2 0 11.8906574687082 15.1661011208221 6.14890691475011
23 2 8 0 12.1306574687082 14.2361011208221 6.14890691475011
24 3 8 0 8.86667163387872 14.264225735506 4.08215295290574
25 3 2 0 9.82667163387872 14.264225735506 4.08215295290574
26 3 8 0 10.0666716338787 13.334225735506 4.08215295290574
27 4 8 0 4.4237385531608 13.2895026674401 3.80543556762859
28 4 2 0 5.3837385531608 13.2895026674401 3.80543556762859
29 4 8 0 5.6237385531608 12.3595026674401 3.80543556762859
30 5 8 0 12.550392838167 0.776571655124426 4.13122787838802
31 5 2 0 13.510392838167 0.776571655124426 4.13122787838802
32 5 8 0 13.750392838167 -0.153428344875574 4.13122787838802
33 6 8 0 13.1549078172259 11.6769535750523 10.2319191559218
34 6 2 0 14.1149078172259 11.6769535750523 10.2319191559218
35 6 8 0 14.3549078172259 10.7469535750523 10.2319191559218
36 7 8 0 5.47243988301605 4.16076317470521 13.0521406978369
37 7 2 0 6.43243988301605 4.16076317470521 13.0521406978369
38 7 8 0 6.67243988301605 3.23076317470521 13.0521406978369
39 8 8 0 7.22373583048582 1.73561689717695 3.75135898240842
40 8 2 0 8.18373583048582 1.73561689717695 3.75135898240842
41 8 8 0 8.42373583048582 0.805616897176951 3.75135898240842
42 9 8 0 8.56423110977746 5.59113395208493 2.51937842695042
43 9 2 0 9.52423110977747 5.59113395208493 2.51937842695042
44 9 8 0 9.76423110977747 4.66113395208493 2.51937842695042
45 10 8 0 13.0171288973372 7.07178801106289 0.992142566246912
46 10 2 0 13.9771288973372 7.07178801106289 0.992142566246912
47 10 8 0 14.2171288973372 6.14178801106289 0.992142566246912
48 11 8 0 2.55462797169574 12.1929520803411 13.5056940524373
49 11 2 0 3.51462797169574 12.1929520803411 13.5056940524373
50 11 8 0 3.75462797169574 11.2629520803411 13.5056940524373
51 12 8 0 8.24811074344441 13.960785892969 13.3883293834515
52 12 2 0 9.20811074344441 13.960785892969 13.3883293834515
53 12 8 0 9.44811074344441 13.030785892969 13.3883293834515
54 13 8 0 6.56658522712067 7.95064193353988 6.4127810311038
55 13 2 0 7.52658522712067 7.95064193353988 6.4127810311038
56 13 8 0 7.76658522712067 7.02064193353988 6.4127810311038
57 14 8 0 3.47397244811989 10.4503790712357 4.84661341644824
58 14 2 0 4.43397244811989 10.4503790712357 4.84661341644824
59 14 8 0 4.67397244811989 9.52037907123566 4.84661341644824
60 15 8 0 12.423629495753 7.43183848372661 9.71751796896569
61 15 2 0 13.383629495753 7.43183848372661 9.71751796896569
62 15 8 0 13.623629495753 6.50183848372661 9.71751796896569
63 16 8 0 5.03384047231637 0.704333270378411 7.33714374247938
64 16 2 0 5.99384047231637 0.704333270378411 7.33714374247938
65 16 8 0 6.23384047231637 -0.225666729621589 7.33714374247938
66 17 8 0 10.2556849589758 3.47978998365812 13.7016392278019
67 17 2 0 11.2156849589758 3.47978998365812 13.7016392278019
68 17 8 0 11.4556849589758 2.54978998365812 13.7016392278019
69 18 8 0 2.86616587123834 7.68468394334428 6.70285168569535
70 18 2 0 3.82616587123834 7.68468394334428 6.70285168569535
71 18 8 0 4.06616587123834 6.75468394334428 6.70285168569535
72 19 8 0 9.83671958718449 5.77999638085253 8.95838466589339
73 19 2 0 10.7967195871845 5.77999638085253 8.95838466589339
74 19 8 0 11.0367195871845 4.84999638085254 8.95838466589339
75 20 8 0 -0.0262422971706837 12.5687665449828 1.86916750506498
76 20 2 0 0.933757702829316 12.5687665449828 1.86916750506498
77 20 8 0 1.17375770282932 11.6387665449828 1.86916750506498
78 21 8 0 12.6242376984749 13.7093035124149 12.7246970543638
79 21 2 0 13.5842376984749 13.7093035124149 12.7246970543638
80 21 8 0 13.8242376984749 12.7793035124149 12.7246970543638
81 22 8 0 2.72551084097475 4.019682560293 5.26673105196096
82 22 2 0 3.68551084097475 4.019682560293 5.26673105196096
83 22 8 0 3.92551084097475 3.089682560293 5.26673105196096
84 23 8 0 4.83425575235859 3.78563578863628 12.4369189341087
85 23 2 0 5.79425575235859 3.78563578863628 12.4369189341087
86 23 8 0 6.03425575235859 2.85563578863628 12.4369189341087
87 24 8 0 7.61902604877949 14.3861899773497 5.66321296384558
88 24 2 0 8.57902604877949 14.3861899773497 5.66321296384558
89 24 8 0 8.81902604877949 13.4561899773497 5.66321296384558
90 25 8 0 1.93233944286592 0.983951066564769 6.57490643206984
91 25 2 0 2.89233944286592 0.983951066564769 6.57490643206984
92 25 8 0 3.13233944286592 0.0539510665647685 6.57490643206984
93 26 8 0 7.73340282772668 10.570331624886 2.1507437992841
94 26 2 0 8.69340282772668 10.570331624886 2.1507437992841
95 26 8 0 8.93340282772668 9.64033162488602 2.1507437992841
96 27 8 0 7.38897557297722 14.2582278970536 14.7374418913387
97 27 2 0 8.34897557297722 14.2582278970536 14.7374418913387
98 27 8 0 8.58897557297722 13.3282278970536 14.7374418913387
99 28 8 0 5.11191423676908 8.19160111405887 3.69388057035394
100 28 2 0 6.07191423676908 8.19160111405887 3.69388057035394
101 28 8 0 6.31191423676908 7.26160111405887 3.69388057035394
102 29 8 0 9.13356118530035 3.80408893613145 4.92836236255243
103 29 2 0 10.0935611853004 3.80408893613145 4.92836236255243
104 29 8 0 10.3335611853004 2.87408893613145 4.92836236255243
105 30 8 0 4.41730339240283 15.1716788617801 0.485161050455645
106 30 2 0 5.37730339240283 15.1716788617801 0.485161050455645
107 30 8 0 5.61730339240283 14.2416788617801 0.485161050455645
108 31 8 0 5.2845831289608 9.9561417642422 10.7042574731167
109 31 2 0 6.2445831289608 9.9561417642422 10.7042574731167
110 31 8 0 6.4845831289608 9.0261417642422 10.7042574731167
111 32 8 0 2.45166075808927 9.55213806167245 2.88688541273586
112 32 2 0 3.41166075808927 9.55213806167245 2.88688541273586
113 32 8 0 3.65166075808927 8.62213806167245 2.88688541273586
114 33 8 0 9.11446894562803 13.4535483379755 6.42612720374018
115 33 2 0 10.074468945628 13.4535483379755 6.42612720374018
116 33 8 0 10.314468945628 12.5235483379755 6.42612720374018
117 34 8 0 0.631970415562391 3.39502150233835 7.21120678586885
118 34 2 0 1.59197041556239 3.39502150233835 7.21120678586885
119 34 8 0 1.83197041556239 2.46502150233835 7.21120678586885
120 35 8 0 5.27562183022499 6.87716095632873 7.61678039445542
121 35 2 0 6.23562183022499 6.87716095632873 7.61678039445542
122 35 8 0 6.47562183022499 5.94716095632873 7.61678039445542
123 36 8 0 6.2677290003933 0.471836487241089 7.89975829655305
124 36 2 0 7.2277290003933 0.471836487241089 7.89975829655305
125 36 8 0 7.4677290003933 -0.458163512758911 7.89975829655305
126 37 8 0 0.579874722026289 7.04585878568701 13.1372955779079
127 37 2 0 1.53987472202629 7.04585878568701 13.1372955779079
128 37 8 0 1.77987472202629 6.11585878568701 13.1372955779079
129 38 8 0 0.0551343108247966 1.68992901145481 0.561228372389451
130 38 2 0 1.0151343108248 1.68992901145481 0.561228372389451
131 38 8 0 1.2551343108248 0.759929011454806 0.561228372389451
132 39 8 0 3.59374687934294 3.49281859741546 0.00799961504526436
133 39 2 0 4.55374687934294 3.49281859741546 0.00799961504526436
134 39 8 0 4.79374687934294 2.56281859741546 0.00799961504526436
135 40 8 0 0.612046984462068 9.56976725062355 9.95153100346215
136 40 2 0 1.57204698446207 9.56976725062355 9.95153100346215
137 40 8 0 1.81204698446207 8.63976725062355 9.95153100346215
138 41 8 0 6.53621184683405 5.85335175198503 11.01945720613
139 41 2 0 7.49621184683405 5.85335175198503 11.01945720613
140 41 8 0 7.73621184683405 4.92335175198503 11.01945720613
141 42 8 0 10.9909081044327 10.5633753612079 2.01690026326105
142 42 2 0 11.9509081044327 10.5633753612079 2.01690026326105
143 42 8 0 12.1909081044327 9.63337536120787 2.01690026326105
144 43 8 0 3.87007878089324 12.505403202204 1.38281633611768
145 43 2 0 4.83007878089324 12.505403202204 1.38281633611768
146 43 8 0 5.07007878089324 11.575403202204 1.38281633611768
147 44 8 0 6.45738144448958 11.3492481123563 10.2699799009133
148 44 2 0 7.41738144448958 11.3492481123563 10.2699799009133
149 44 8 0 7.65738144448958 10.4192481123563 10.2699799009133
150 45 8 0 12.5022106202971 2.28512079263106 4.19232985354029
151 45 2 0 13.4622106202971 2.28512079263106 4.19232985354029
152 45 8 0 13.7022106202971 1.35512079263106 4.19232985354029
153 46 8 0 6.75452489216812 5.14764727716334 3.71155964559875
154 46 2 0 7.71452489216812 5.14764727716334 3.71155964559875
155 46 8 0 7.95452489216812 4.21764727716334 3.71155964559875
156 47 8 0 1.77054948566481 10.3615897455625 9.1942569357343
157 47 2 0 2.73054948566481 10.3615897455625 9.1942569357343
158 47 8 0 2.97054948566482 9.43158974556252 9.1942569357343
159 48 8 0 12.9497819922119 11.9270842514839 8.1082019302994
160 48 2 0 13.9097819922119 11.9270842514839 8.1082019302994
161 48 8 0 14.1497819922119 10.9970842514839 8.1082019302994
162 49 8 0 6.18142132923938 10.1669623730145 6.34949890547432
163 49 2 0 7.14142132923938 10.1669623730145 6.34949890547432
164 49 8 0 7.38142132923938 9.23696237301454 6.34949890547432
165 50 8 0 1.78580435036682 8.32435316214338 5.02297205035575
166 50 2 0 2.74580435036682 8.32435316214338 5.02297205035575
167 50 8 0 2.98580435036682 7.39435316214338 5.02297205035575
168 51 8 0 8.24521309507079 7.3168642811384 3.88064845930785
169 51 2 0 9.20521309507079 7.3168642811384 3.88064845930785
170 51 8 0 9.44521309507079 6.38686428113841 3.88064845930785
171 52 8 0 9.86874811395071 8.44434903975576 12.2192870057188
172 52 2 0 10.8287481139507 8.44434903975576 12.2192870057188
173 52 8 0 11.0687481139507 7.51434903975576 12.2192870057188
174 53 8 0 -0.31930537850596 10.9578700740263 4.6245638479013
175 53 2 0 0.64069462149404 10.9578700740263 4.6245638479013
176 53 8 0 0.88069462149404 10.0278700740263 4.6245638479013
177 54 8 0 13.7466667829733 9.6463592971582 6.05203541577794
178 54 2 0 14.7066667829733 9.6463592971582 6.05203541577794
179 54 8 0 14.9466667829733 8.7163592971582 6.05203541577794
180 55 8 0 12.5340033222176 5.55972892715596 6.76888227579184
181 55 2 0 13.4940033222176 5.55972892715596 6.76888227579184
182 55 8 0 13.7340033222176 4.62972892715596 6.76888227579184
183 56 8 0 7.23457384432666 13.0584042930882 2.54710417008027
184 56 2 0 8.19457384432666 13.0584042930882 2.54710417008027
185 56 8 0 8.43457384432666 12.1284042930882 2.54710417008027
186 57 8 0 8.32967461014166 6.41207984456792 5.07842393824831
187 57 2 0 9.28967461014166 6.41207984456792 5.07842393824831
188 57 8 0 9.52967461014167 5.48207984456792 5.07842393824831
189 58 8 0 6.83905263125896 4.72802918212488 1.93994433037005
190 58 2 0 7.79905263125896 4.72802918212488 1.93994433037005
191 58 8 0 8.03905263125896 3.79802918212488 1.93994433037005
192 59 8 0 14.1659745590016 5.875993078053 3.25272492365912
193 59 2 0 15.1259745590016 5.875993078053 3.25272492365912
194 59 8 0 15.3659745590016 4.945993078053 3.25272492365912
195 60 8 0 3.34837271642871 15.0916060099285 4.17615320649929
196 60 2 0 4.30837271642871 15.0916060099285 4.17615320649929
197 60 8 0 4.54837271642871 14.1616060099285 4.17615320649929
198 61 8 0 9.16064353703521 3.89940009144135 9.14875149959698
199 61 2 0 10.1206435370352 3.89940009144135 9.14875149959698
200 61 8 0 10.3606435370352 2.96940009144135 9.14875149959698
201 62 8 0 5.39906819161959 11.7892369562201 9.89627335569821
202 62 2 0 6.35906819161959 11.7892369562201 9.89627335569821
203 62 8 0 6.59906819161959 10.8592369562201 9.89627335569821
204 63 8 0 8.90471475591883 4.98784985550679 2.4492032721173
205 63 2 0 9.86471475591883 4.98784985550679 2.4492032721173
206 63 8 0 10.1047147559188 4.05784985550679 2.4492032721173
207 64 8 0 4.80114367950708 9.19589338166639 14.5340472785756
208 64 2 0 5.76114367950708 9.19589338166639 14.5340472785756
209 64 8 0 6.00114367950708 8.26589338166639 14.5340472785756
210 65 8 0 13.0792023630068 0.922306226976216 4.88914865534753
211 65 2 0 14.0392023630068 0.922306226976216 4.88914865534753
212 65 8 0 14.2792023630068 -0.00769377302378421 4.88914865534753
213 66 8 0 2.29521803252399 3.18527712294832 1.64553493377753
214 66 2 0 3.25521803252399 3.18527712294832 1.64553493377753
215 66 8 0 3.49521803252399 2.25527712294832 1.64553493377753
216 67 8 0 4.80695152116939 10.6824049660377 9.01687231496908
217 67 2 0 5.76695152116939 10.6824049660377 9.01687231496908
218 67 8 0 6.00695152116939 9.75240496603772 9.01687231496908
219 68 8 0 9.02459486897103 2.57925856666639 8.75200913753361
220 68 2 0 9.98459486897104 2.57925856666639 8.75200913753361
221 68 8 0 10.224594868971 1.64925856666639 8.75200913753361
222 69 8 0 6.92644671580754 12.6970099044871 2.29620894533582
223 69 2 0 7.88644671580754 12.6970099044871 2.29620894533582
224 69 8 0 8.12644671580754 11.7670099044871 2.29620894533582
225 70 8 0 1.06534310893156 12.6014133907761 3.80291045643389
226 70 2 0 2.02534310893156 12.6014133907761 3.80291045643389
227 70 8 0 2.26534310893156 11.6714133907761 3.80291045643389
228 71 8 0 1.4775401986856 3.59883622656576 3.2422005222179
229 71 2 0 2.4375401986856 3.59883622656576 3.2422005222179
230 71 8 0 2.6775401986856 2.66883622656576 3.2422005222179
231 72 8 0 -0.542466087061912 5.57072762906551 1.96283392840996
232 72 2 0 0.417533912938088 5.57072762906551 1.96283392840996
233 72 8 0 0.657533912938088 4.64072762906551 1.96283392840996
234 73 8 0 1.04390450214967 11.6887194550969 7.46787480544299
235 73 2 0 2.00390450214967 11.6887194550969 7.46787480544299
236 73 8 0 2.24390450214967 10.7587194550969 7.46787480544299
237 74 8 0 10.1333201005775 8.76501248841174 10.6431857252028
238 74 2 0 11.0933201005775 8.76501248841174 10.6431857252028
239 74 8 0 11.3333201005775 7.83501248841174 10.6431857252028
240 75 8 0 11.0711359306891 7.30121364043094 0.718149124877527
241 75 2 0 12.0311359306891 7.30121364043094 0.718149124877527
242 75 8 0 12.2711359306891 6.37121364043094 0.718149124877527
243 76 8 0 3.98611857133918 1.19848643004894 1.68857296113856
244 76 2 0 4.94611857133918 1.19848643004894 1.68857296113856
245 76 8 0 5.18611857133918 0.268486430048943 1.68857296113856
246 77 8 0 4.85666772510856 12.2664838067163 14.3506714620162
247 77 2 0 5.81666772510856 12.2664838067163 14.3506714620162
248 77 8 0 6.05666772510856 11.3364838067163 14.3506714620162
249 78 8 0 8.18744198695756 13.7621286271047 10.9839575726073
250 78 2 0 9.14744198695757 13.7621286271047 10.9839575726073
251 78 8 0 9.38744198695757 12.8321286271047 10.9839575726073
252 79 8 0 9.42011205174029 14.077906910507 0.0814293755684048
253 79 2 0 10.3801120517403 14.077906910507 0.0814293755684048
254 79 8 0 10.6201120517403 13.147906910507 0.0814293755684048
255 80 8 0 12.6041973887198 14.3812410083506 9.61173122283071
256 80 2 0 13.5641973887198 14.3812410083506 9.61173122283071
257 80 8 0 13.8041973887198 13.4512410083506 9.61173122283071
258 81 8 0 14.1191594330315 10.7843196500931 13.5267920885235
259 81 2 0 15.0791594330315 10.7843196500931 13.5267920885235
260 81 8 0 15.3191594330315 9.85431965009309 13.5267920885235
261 82 8 0 13.452708200058 9.94908984907903 7.34245125087909
262 82 2 0 14.412708200058 9.94908984907903 7.34245125087909
263 82 8 0 14.652708200058 9.01908984907903 7.34245125087909
264 83 8 0 0.319880599128082 4.14731711423024 7.66636212472804
265 83 2 0 1.27988059912808 4.14731711423024 7.66636212472804
266 83 8 0 1.51988059912808 3.21731711423025 7.66636212472804
267 84 8 0 -0.484772899216041 13.1450520634558 7.63340030098334
268 84 2 0 0.475227100783959 13.1450520634558 7.63340030098334
269 84 8 0 0.715227100783959 12.2150520634558 7.63340030098334
270 85 8 0 4.68328182745725 10.6913709237147 5.93304045614786
271 85 2 0 5.64328182745725 10.6913709237147 5.93304045614786
272 85 8 0 5.88328182745725 9.76137092371471 5.93304045614786
273 86 8 0 11.2499639815371 10.2059703883156 4.65919378912076
274 86 2 0 12.2099639815371 10.2059703883156 4.65919378912076
275 86 8 0 12.4499639815371 9.27597038831562 4.65919378912076
276 87 8 0 9.20574095260352 14.3340299142897 0.794774119276553
277 87 2 0 10.1657409526035 14.3340299142897 0.794774119276553
278 87 8 0 10.4057409526035 13.4040299142897 0.794774119276553
279 88 8 0 6.65131613306701 7.32256647589616 13.1896444817539
280 88 2 0 7.61131613306701 7.32256647589616 13.1896444817539
281 88 8 0 7.85131613306701 6.39256647589616 13.1896444817539
282 89 8 0 13.413145386586 10.9491351425555 7.84454866312444
283 89 2 0 14.373145386586 10.9491351425555 7.84454866312444
284 89 8 0 14.613145386586 10.0191351425555 7.84454866312444
285 90 8 0 5.19499900678173 8.26660604722798 3.58900078106672
286 90 2 0 6.15499900678173 8.26660604722798 3.58900078106672
287 90 8 0 6.39499900678173 7.33660604722798 3.58900078106672
288 91 8 0 2.87100570087321 12.1524332444556 11.8943627737463
289 91 2 0 3.83100570087321 12.1524332444556 11.8943627737463
290 91 8 0 4.07100570087321 11.2224332444556 11.8943627737463
291 92 8 0 11.7271892032307 5.25079221505672 2.17841090052389
292 92 2 0 12.6871892032307 5.25079221505672 2.17841090052389
293 92 8 0 12.9271892032307 4.32079221505672 2.17841090052389
294 93 8 0 4.43472480794415 12.2280910126306 9.92835741606541
295 93 2 0 5.39472480794415 12.2280910126306 9.92835741606541
296 93 8 0 5.63472480794415 11.2980910126306 9.92835741606541
297 94 8 0 9.83900582810864 5.38101509021595 2.43564141565003
298 94 2 0 10.7990058281086 5.38101509021595 2.43564141565003
299 94 8 0 11.0390058281086 4.45101509021595 2.43564141565003
300 95 8 0 8.98169093459845 1.05452222790569 3.04324519238435
301 95 2 0 9.94169093459845 1.05452222790569 3.04324519238435
302 95 8 0 10.1816909345984 0.124522227905691 3.04324519238435
303 96 8 0 9.18492241806351 3.91885963658802 7.44027437875047
304 96 2 0 10.1449224180635 3.91885963658802 7.44027437875047
305 96 8 0 10.3849224180635 2.98885963658802 7.44027437875047
306 97 8 0 9.38982735897414 13.5256955660321 3.53683785768226
307 97 2 0 10.3498273589741 13.5256955660321 3.53683785768226
308 97 8 0 10.5898273589741 12.5956955660321 3.53683785768226
309 98 8 0 9.32935034899972 10.7359849968366 12.0799426396843
310 98 2 0 10.2893503489997 10.7359849968366 12.0799426396843
311 98 8 0 10.5293503489997 9.80598499683663 12.0799426396843
312 99 8 0 7.5987792962417 7.48663464834914 10.0630274077412
313 99 2 0 8.5587792962417 7.48663464834914 10.0630274077412
314 99 8 0 8.7987792962417 6.55663464834914 10.0630274077412
315 100 8 0 11.6609277964756 13.29985058791 14.5991007378325
316 100 2 0 12.6209277964756 13.29985058791 14.5991007378325
317 100 8 0 12.8609277964756 12.36985058791 14.5991007378325
318 101 8 0 4.89703115352429 3.15581306390464 10.2750326029491
319 101 2 0 5.85703115352429 3.15581306390464 10.2750326029491
320 101 8 0 6.09703115352429 2.22581306390464 10.2750326029491
321 102 8 0 2.18076944511384 3.40513980406336 5.72909196722321
322 102 2 0 3.14076944511384 3.40513980406336 5.72909196722321
323 102 8 0 3.38076944511384 2.47513980406336 5.72909196722321
324 103 8 0 0.0692184751108289 11.155108734211 8.59251204645261
325 103 2 0 1.02921847511083 11.155108734211 8.59251204645261
326 103 8 0 1.26921847511083 10.225108734211 8.59251204645261
327 104 8 0 5.48833193301223 8.21124437306076 3.54748700628988
328 104 2 0 6.44833193301223 8.21124437306076 3.54748700628988
329 104 8 0 6.68833193301223 7.28124437306076 3.54748700628988
330 105 8 0 10.0112353129964 6.67310085537843 0.0340970058459789
331 105 2 0 10.9712353129964 6.67310085537843 0.0340970058459789
332 105 8 0 11.2112353129964 5.74310085537843 0.0340970058459789
333 106 8 0 1.05385686663911 2.19211663044058 6.84251269558445
334 106 2 0 2.01385686663911 2.19211663044058 6.84251269558445
335 106 8 0 2.25385686663911 1.26211663044058 6.84251269558445
336 107 8 0 8.20929922090843 11.989674454499 8.21411626995541
337 107 2 0 9.16929922090843 11.989674454499 8.21411626995541
338 107 8 0 9.40929922090843 11.059674454499 8.21411626995541
339 108 8 0 3.68389244235121 11.3521222110745 6.2742789206095
340 108 2 0 4.64389244235121 11.3521222110745 6.2742789206095
341 108 8 0 4.88389244235121 10.4221222110745 6.2742789206095
342 109 8 0 4.39920571094379 1.91875310306437 12.7048548613675
343 109 2 0 5.35920571094379 1.91875310306437 12.7048548613675
344 109 8 0 5.59920571094379 0.988753103064373 12.7048548613675
345 110 8 0 5.07498335835524 6.53218081378378 13.0030849808827
346 110 2 0 6.03498335835524 6.53218081378378 13.0030849808827
347 110 8 0 6.27498335835524 5.60218081378378 13.0030849808827
348 111 8 0 8.62189892490394 1.71840734820813 13.2818446448073
349 111 2 0 9.58189892490394 1.71840734820813 13.2818446448073
350 111 8 0 9.82189892490394 0.788407348208129 13.2818446448073
351 112 8 0 3.38696861799806 9.17709783342667 8.82365369587205
352 112 2 0 4.34696861799806 9.17709783342667 8.82365369587205
353 112 8 0 4.58696861799806 8.24709783342667 8.82365369587205
354 113 8 0 13.2208015029039 2.54988426383585 6.55297047109343
355 113 2 0 14.1808015029039 2.54988426383585 6.55297047109343
356 113 8 0 14.4208015029039 1.61988426383585 6.55297047109343
357 114 8 0 9.58784611240961 9.41922208800912 6.72832121606916
358 114 2 0 10.5478461124096 9.41922208800912 6.72832121606916
359 114 8 0 10.7878461124096 8.48922208800912 6.72832121606916
360 115 8 0 10.2087714818493 2.51821950817481 10.7682542258408
361 115 2 0 11.1687714818493 2.51821950817481 10.7682542258408
362 115 8 0 11.4087714818493 1.58821950817481 10.7682542258408
363 116 8 0 3.89440138402395 6.62541574723087 13.6401354416739
364 116 2 0 4.85440138402395 6.62541574723087 13.6401354416739
365 116 8 0 5.09440138402395 5.69541574723087 13.6401354416739
366 117 8 0 11.813608636586 14.8239879174531 6.99733088957146
367 117 2 0 12.773608636586 14.8239879174531 6.99733088957146
368 117 8 0 13.013608636586 13.8939879174531 6.99733088957146
369 118 8 0 13.5604550367873 4.68780332867987 6.88844478107058
370 118 2 0 14.5204550367873 4.68780332867987 6.88844478107058
371 118 8 0 14.7604550367873 3.75780332867987 6.88844478107058
372 119 8 0 11.6299602929223 10.8561391841527 13.9587563602254
373 119 2 0 12.5899602929223 10.8561391841527 13.9587563602254
374 119 8 0 12.8299602929223 9.92613918415271 13.9587563602254
375 120 8 0 14.2457407030463 12.5137605813239 9.8266887862701
376 120 2 0 15.2057407030463 12.5137605813239 9.8266887862701
377 120 8 0 15.4457407030463 11.5837605813239 9.8266887862701
378 121 8 0 5.97062292552553 3.99139473022893 13.3833920862526
379 121 2 0 6.93062292552553 3.99139473022893 13.3833920862526
380 121 8 0 7.17062292552553 3.06139473022893 13.3833920862526
381 122 8 0 6.54856654859148 7.21552485757507 7.49137630686164
382 122 2 0 7.50856654859148 7.21552485757507 7.49137630686164
383 122 8 0 7.74856654859148 6.28552485757507 7.49137630686164
384 123 8 0 11.6741585572902 4.43527124397457 8.19619095185772
385 123 2 0 12.6341585572902 4.43527124397457 8.19619095185772
386 123 8 0 12.8741585572902 3.50527124397457 8.19619095185772
387 124 8 0 10.0221296217944 11.8077216231637 13.7362047296483
388 124 2 0 10.9821296217944 11.8077216231637 13.7362047296483
389 124 8 0 11.2221296217944 10.8777216231637 13.7362047296483
390 125 8 0 9.94102733951993 3.10071504599415 2.33881233958527
391 125 2 0 10.9010273395199 3.10071504599415 2.33881233958527
392 125 8 0 11.1410273395199 2.17071504599415 2.33881233958527
393 126 8 0 0.145211669588462 8.05543871753849 4.61641810135916
394 126 2 0 1.10521166958846 8.05543871753849 4.61641810135916
395 126 8 0 1.34521166958846 7.12543871753849 4.61641810135916
396 127 8 0 2.58803722841665 10.2823121128045 8.44633704051375
397 127 2 0 3.54803722841665 10.2823121128045 8.44633704051375
398 127 8 0 3.78803722841665 9.3523121128045 8.44633704051375
399 128 8 0 5.94748509043828 6.01678676245734 1.42291334574111
400 128 2 0 6.90748509043828 6.01678676245734 1.42291334574111
401 128 8 0 7.14748509043828 5.08678676245734 1.42291334574111
402 129 8 0 8.93263603138737 4.25612315110862 12.4568145233206
403 129 2 0 9.89263603138737 4.25612315110862 12.4568145233206
404 129 8 0 10.1326360313874 3.32612315110862 12.4568145233206
405 130 8 0 1.71281612056307 4.68986452598125 3.54034423129633
406 130 2 0 2.67281612056308 4.68986452598125 3.54034423129633
407 130 8 0 2.91281612056308 3.75986452598125 3.54034423129633
408 131 8 0 0.292947738636285 6.2754454595875 8.99427865748294
409 131 2 0 1.25294773863629 6.2754454595875 8.99427865748294
410 131 8 0 1.49294773863629 5.3454454595875 8.99427865748294
411 132 8 0 2.03391772622243 5.46678640338592 4.10140311112627
412 132 2 0 2.99391772622243 5.46678640338592 4.10140311112627
413 132 8 0 3.23391772622243 4.53678640338592 4.10140311112627
414 133 8 0 4.26042572289705 10.4566401258949 9.1640476800967
415 133 2 0 5.22042572289705 10.4566401258949 9.1640476800967
416 133 8 0 5.46042572289705 9.52664012589492 9.1640476800967
417 134 8 0 13.113981687203 8.673347457489 2.16814711340703
418 134 2 0 14.073981687203 8.673347457489 2.16814711340703
419 134 8 0 14.3139816872031 7.743347457489 2.16814711340703
420 135 8 0 10.5472837567516 11.818869236568 14.1181061044335
421 135 2 0 11.5072837567516 11.818869236568 14.1181061044335
422 135 8 0 11.7472837567516 10.888869236568 14.1181061044335
423 136 8 0 2.19049749241211 4.18846534722485 3.56747689540498
424 136 2 0 3.15049749241211 4.18846534722485 3.56747689540498
425 136 8 0 3.39049749241211 3.25846534722485 3.56747689540498
426 137 8 0 12.2176644955482 8.23001866269857 3.34043047274463
427 137 2 0 13.1776644955482 8.23001866269857 3.34043047274463
428 137 8 0 13.4176644955482 7.30001866269857 3.34043047274463
429 138 8 0 8.70969098221511 10.5647698270064 1.38176909415051
430 138 2 0 9.66969098221511 10.5647698270064 1.38176909415051
431 138 8 0 9.90969098221511 9.63476982700639 1.38176909415051
432 139 8 0 9.26371487832628 1.19226668071002 10.2892764075659
433 139 2 0 10.2237148783263 1.19226668071002 10.2892764075659
434 139 8 0 10.4637148783263 0.262266680710018 10.2892764075659
435 140 8 0 7.41096969039179 13.8525552458037 14.5204548630863
436 140 2 0 8.37096969039179 13.8525552458037 14.5204548630863
437 140 8 0 8.61096969039179 12.9225552458037 14.5204548630863
438 141 8 0 2.12161144634709 13.3677828467358 0.0974573835264891
439 141 2 0 3.08161144634709 13.3677828467358 0.0974573835264891
440 141 8 0 3.32161144634709 12.4377828467358 0.0974573835264891
441 142 8 0 10.1995282019209 8.8648986052163 10.0417866627686
442 142 2 0 11.1595282019209 8.8648986052163 10.0417866627686
443 142 8 0 11.3995282019209 7.93489860521629 10.0417866627686
444 143 8 0 3.49408119960688 10.2047233636864 3.44214152195491
445 143 2 0 4.45408119960688 10.2047233636864 3.44214152195491
446 143 8 0 4.69408119960688 9.27472336368635 3.44214152195491
447 144 8 0 13.3934070034605 4.71403970191255 14.1694341099355
448 144 2 0 14.3534070034605 4.71403970191255 14.1694341099355
449 144 8 0 14.5934070034605 3.78403970191255 14.1694341099355
450 145 8 0 10.1982872367091 0.674487122278661 4.92255710531026
451 145 2 0 11.1582872367091 0.674487122278661 4.92255710531026
452 145 8 0 11.3982872367091 -0.25551287772134 4.92255710531026
453 146 8 0 7.11061885857023 0.634653129791841 9.97448242502287
454 146 2 0 8.07061885857023 0.634653129791841 9.97448242502287
455 146 8 0 8.31061885857023 -0.295346870208159 9.97448242502287
456 147 8 0 7.57317872179672 5.67722844350152 7.11931979516521
457 147 2 0 8.53317872179672 5.67722844350152 7.11931979516521
458 147 8 0 8.77317872179672 4.74722844350152 7.11931979516521
459 148 8 0 1.82819907713681 3.63338948035613 9.9111600976903
460 148 2 0 2.78819907713681 3.63338948035613 9.9111600976903
461 148 8 0 3.02819907713682 2.70338948035613 9.9111600976903
462 149 8 0 10.622364535667 13.4767822506279 12.3348903295118
463 149 2 0 11.582364535667 13.4767822506279 12.3348903295118
464 149 8 0 11.822364535667 12.5467822506279 12.3348903295118
465 150 8 0 3.78290803913958 4.87175879575312 2.48790823621675
466 150 2 0 4.74290803913958 4.87175879575312 2.48790823621675
467 150 8 0 4.98290803913958 3.94175879575312 2.48790823621675
468 151 8 0 6.52729166831821 6.01159445982426 9.68947717454284
469 151 2 0 7.48729166831821 6.01159445982426 9.68947717454284
470 151 8 0 7.72729166831821 5.08159445982426 9.68947717454284
471 152 8 0 10.6803686781507 8.5123732655216 7.32618626207113
472 152 2 0 11.6403686781507 8.5123732655216 7.32618626207113