LAMMPS (29 Sep 2021 - Update 1)
Reading data file ...
  triclinic box = (0.0000000 0.0000000 0.0000000) to (15.000000 15.000000 15.000000) with tilt (0.0000000 0.0000000 0.0000000)
  2 by 4 by 4 MPI processor grid
  reading atoms ...
  1520 atoms
  scanning bonds ...
  4 = max bonds/atom
  scanning angles ...
  6 = max angles/atom
  scanning dihedrals ...
  12 = max dihedrals/atom
  scanning impropers ...
  2 = max impropers/atom
  reading bonds ...
  1022 bonds
  reading angles ...
  537 angles
  reading dihedrals ...
  51 dihedrals
  reading impropers ...
  7 impropers
Finding 1-2 1-3 1-4 neighbors ...
  special bond factors lj:    0        0        1       
  special bond factors coul:  0        0        1       
     4 = max # of 1-2 neighbors
     5 = max # of 1-3 neighbors
     8 = max # of special neighbors
  special bonds CPU = 0.002 seconds
  read_data CPU = 0.017 seconds
WARNING: Using 'neigh_modify every 1 delay 0 check yes' setting during minimization (../min.cpp:188)
Neighbor list info ...
  update every 1 steps, delay 0 steps, check yes
  max neighbors/atom: 10000, page size: 100000
  master list distance cutoff = 13
  ghost atom cutoff = 13
  binsize = 6.5, bins = 3 3 3
  3 neighbor lists, perpetual/occasional/extra = 3 0 0
  (1) pair hbond/dreiding/lj, perpetual, skip from (3)
      attributes: full, newton on
      pair build: skip
      stencil: none
      bin: none
  (2) pair lj/cut, perpetual, half/full from (3)
      attributes: half, newton on
      pair build: halffull/newton
      stencil: none
      bin: none
  (3) neighbor class addition, perpetual
      attributes: full, newton on
      pair build: full/bin
      stencil: full/bin/3d
      bin: standard
Setting up cg style minimization ...
  Unit style    : real
  Current step  : 0
WARNING: Energy due to 1 extra global DOFs will be included in minimizer energies
Per MPI rank memory allocation (min/avg/max) = 15.59 | 16.00 | 16.54 Mbytes
Step Temp E_pair E_mol TotEng Press Volume 
       0            0 7.3291296e+15     209.6732 7.3291296e+15 5.9561102e+17         3375 
    5217            0   -1015.0533    51.925597   -963.12772    105.23384     36098.47 
Loop time of 4.46367 on 32 procs for 5217 steps with 1520 atoms

100.0% CPU use with 32 MPI tasks x no OpenMP threads

Minimization stats:
  Stopping criterion = energy tolerance
  Energy initial, next-to-last, final = 
    7.32912959116707e+15  -962.554309903399  -962.650484825561
  Force two-norm initial, final = 6.2393560e+17 109.68361
  Force max component initial, final = 2.9273030e+17 74.717615
  Final line search alpha, max atom move = 1.1919540e-05 0.00089059962
  Iterations, force evaluations = 5217 5218

MPI task timing breakdown:
Section |  min time  |  avg time  |  max time  |%varavg| %total
---------------------------------------------------------------
Pair    | 1.6369     | 2.5897     | 3.7118     |  36.7 | 58.02
Bond    | 0.0071218  | 0.011613   | 0.023555   |   3.8 |  0.26
Neigh   | 0.08905    | 0.089297   | 0.089655   |   0.1 |  2.00
Comm    | 0.30244    | 1.4305     | 2.3856     |  49.5 | 32.05
Output  | 0          | 0          | 0          |   0.0 |  0.00
Modify  | 0          | 0          | 0          |   0.0 |  0.00
Other   |            | 0.3426     |            |       |  7.68

Nlocal:        47.5000 ave          67 max          32 min
Histogram: 4 1 6 5 2 3 5 2 3 1
Nghost:        2027.94 ave        2057 max        1994 min
Histogram: 1 1 4 5 4 4 4 3 3 3
Neighs:        5137.22 ave        8179 max        2924 min
Histogram: 2 4 7 4 3 4 3 3 1 1

Total # of neighbors = 164391
Ave neighs/atom = 108.15197
Ave special neighs/atom = 2.0513158
Neighbor list builds = 88
Dangerous builds = 0
1500 atoms in group WAT
20 atoms in group MOL
Neighbor list info ...
  update every 2 steps, delay 10 steps, check yes
  max neighbors/atom: 10000, page size: 100000
  master list distance cutoff = 13
  ghost atom cutoff = 13
  binsize = 6.5, bins = 6 6 6
  4 neighbor lists, perpetual/occasional/extra = 3 1 0
  (1) pair hbond/dreiding/lj, perpetual, skip from (4)
      attributes: full, newton on
      pair build: skip
      stencil: none
      bin: none
  (2) pair lj/cut, perpetual, half/full from (4)
      attributes: half, newton on
      pair build: halffull/newton
      stencil: none
      bin: none
  (3) compute group/group, occasional, copy from (2)
      attributes: half, newton on
      pair build: copy
      stencil: none
      bin: none
  (4) neighbor class addition, perpetual
      attributes: full, newton on
      pair build: full/bin
      stencil: full/bin/3d
      bin: standard
Setting up Verlet run ...
  Unit style    : real
  Current step  : 5217
  Time step     : 1
Per MPI rank memory allocation (min/avg/max) = 14.44 | 14.52 | 15.12 Mbytes
Step Temp E_pair E_mol TotEng Press Volume 
    5217          300   -1015.0533    51.925597    395.22742    1825.3485     36098.47 
    5300    307.62777   -1088.4429    192.06354    496.51318   -3.1003185     36098.47 
    5400     296.9473   -1047.3808    210.77288    507.92503     285.5584     36098.47 
    5500    300.20214   -1088.1354     246.9716    518.10662   -249.50058     36098.47 
    5600    290.85283   -1091.1978    223.54133    449.28167    342.19012     36098.47 
    5700    297.67953   -1105.7076    209.10603    451.24681    402.63776     36098.47 
    5800    287.85487   -1085.9643    236.85272    454.25223    608.83455     36098.47 
    5900    303.53941   -1130.4838    216.70092    460.59821    523.30635     36098.47 
    6000    317.76702   -1102.5702    218.52989    554.76125    1054.8227     36098.47 
    6100    309.39161   -1084.4424     239.5453    555.98184    722.72766     36098.47 
    6200    293.12323     -1080.03    230.39181    477.58001    506.19272     36098.47 
    6300    294.29917   -1064.0112    239.07328    507.60477    453.12519     36098.47 
    6400    291.46969   -1096.5719    228.11862    451.27791    929.58002     36098.47 
    6500    299.56446   -1103.9879    232.13336    484.52859     432.5968     36098.47 
    6600    300.74248    -1120.684    242.43042    483.46338    606.31013     36098.47 
    6700    295.54311   -1145.7428     243.4894    435.92166      869.659     36098.47 
    6800    306.18364   -1124.6787    236.35202    498.02703    890.89824     36098.47 
    6900     308.8624   -1148.3858    238.60037    488.69735    817.48601     36098.47 
    7000    295.71839   -1119.6164    248.09187    467.44417    400.21081     36098.47 
    7100    299.49629   -1132.5976     240.8541    464.33089    506.43089     36098.47 
    7200    297.15023   -1070.2037    258.37359    533.62167    748.43379     36098.47 
    7300    294.62634   -1110.1976    242.83514    466.66154    176.72642     36098.47 
    7400    301.37286   -1100.5618    251.83254    515.84201    -76.06154     36098.47 
    7500    309.98646   -1108.5167    243.65026    538.70587   -35.108359     36098.47 
    7600    299.84206   -1094.8811    258.20638    520.96536    381.25754     36098.47 
    7700    295.65302   -1055.2879    239.40886    522.79358    279.41596     36098.47 
    7800    303.20726   -1119.9634    264.48806    517.40184    344.61833     36098.47 
    7900    298.03248   -1110.3145    262.11858    501.25055    344.90557     36098.47 
    8000    296.56313   -1112.5131    266.81319    497.09357    9.3621246     36098.47 
    8100     309.5717   -1129.2442    252.35994    524.81008    55.659134     36098.47 
    8200    301.35585   -1082.8173    268.54588    550.22283    800.40041     36098.47 
    8300    308.95952   -1093.3956    255.03497    560.56186     570.2705     36098.47 
    8400    305.61242   -1120.9226    254.22053     517.0653    343.75791     36098.47 
    8500    309.09716   -1127.0351    256.11455    528.62514    124.23809     36098.47 
    8600    296.18203   -1115.8858    256.47078    481.65296    289.60722     36098.47 
    8700    301.86865   -1132.0934     260.4665    495.18922      716.003     36098.47 
    8800    297.63006   -1150.2556    255.30483    452.67362     993.2705     36098.47 
    8900    312.71417   -1185.0904    250.37676    481.20938    512.82984     36098.47 
    9000    304.22029   -1146.9843    258.47157    488.95122     448.2601     36098.47 
    9100    295.80553   -1176.6961    274.44018    437.10729    94.985183     36098.47 
    9200    295.75477   -1137.6717    264.80073    466.26237    339.59043     36098.47 
    9300    300.85428    -1121.924    267.41925    507.71846    783.59395     36098.47 
    9400    303.45174   -1116.9999    267.72452    524.70871    658.64978     36098.47 
    9500    302.56003   -1128.0427    263.87924    505.78316    466.11397     36098.47 
    9600    308.32053   -1132.0016    260.31195    524.33962    787.84459     36098.47 
    9700    307.47311   -1107.5583    266.74656    551.38055    340.99571     36098.47 
    9800    300.28309   -1093.3067    287.77327    554.10348   -41.597408     36098.47 
    9900    290.84843   -1104.7159    269.69861    481.90093    -24.33837     36098.47 
   10000    304.98044   -1121.9986    283.77937    542.68658    152.88988     36098.47 
   10100    294.07104   -1137.5297    275.53326    469.51325   -314.91937     36098.47 
   10200    304.99553   -1138.2023    252.35927    495.13109      233.816     36098.47 
   10300    292.54221   -1119.7626    280.77972     485.6045    567.36772     36098.47 
   10400    298.02474   -1118.6143    281.84972    512.64686    168.32766     36098.47 
   10500    300.46366   -1106.8792    274.50389    528.07925    692.13744     36098.47 
   10600    295.00878   -1116.3799    294.17786    513.55359    468.16519     36098.47 
   10700    301.52498   -1124.7797    277.40702     517.8873     641.2204     36098.47 
   10800    295.34657   -1088.0149    292.16205     541.4323    461.37815     36098.47 
   10900    297.24994   -1124.9489     270.4721    491.42644    687.82902     36098.47 
   11000    297.90114   -1055.8624    283.43026    576.41969    275.40379     36098.47 
   11100    315.31853   -1094.3696       297.96    631.30554    278.64073     36098.47 
   11200    299.37928   -1115.4869    271.06237    511.12011  -0.93776612     36098.47 
   11300    313.74324   -1110.9981    286.27966    595.86405    192.12813     36098.47 
   11400    290.97178   -1094.5318    287.09779    510.04267    105.84809     36098.47 
   11500    294.96886   -1123.2791    281.76183    494.05758    769.97388     36098.47 
   11600    302.06153    -1128.655    297.99671    537.03117    1033.8587     36098.47 
   11700    295.68058    -1140.579    295.33509    493.55359    625.93247     36098.47 
   11800    293.69046    -1124.002    300.48742    506.27189    336.48149     36098.47 
   11900    299.81818   -1090.4119    285.67926    552.79922    645.49804     36098.47 
   12000    297.63544   -1115.7856    290.33266    522.19586      432.841     36098.47 
   12100    295.62582   -1150.9472    306.19696    493.79924   -145.45683     36098.47 
   12200    303.75527   -1113.9663    298.17488    559.56701    809.65644     36098.47 
   12300    306.92251   -1135.3507    307.29342    561.64197    883.94023     36098.47 
   12400     301.5549   -1085.7447     303.7079    583.35869    884.72733     36098.47 
   12500    297.81587   -1114.3029    296.72391    530.88671    228.10644     36098.47 
   12600      306.676   -1157.8922    307.76039    538.45132    694.05743     36098.47 
   12700    300.89912   -1089.5037    297.35495    570.27746    786.85615     36098.47 
   12800    303.54163   -1137.6978     307.7795    544.47283    286.72547     36098.47 
   12900     301.6121   -1161.8187    306.80056    510.63638    173.84719     36098.47 
   13000    304.15254   -1132.6806     292.3513    536.82793    476.53769     36098.47 
   13100    297.00102    -1112.762    306.97028    538.98446    321.05404     36098.47 
   13200    308.78754   -1122.6677    309.33835    584.81443    343.71968     36098.47 
   13300    306.25624    -1154.222    303.32702    535.78747    567.35745     36098.47 
   13400    308.30456   -1150.6382    297.08203    542.40082    814.22882     36098.47 
   13500    290.39566   -1196.1567    292.25304    410.96449    156.25253     36098.47 
   13600     302.9974   -1189.8906    288.96955    471.00589    390.72733     36098.47 
   13700    294.60313   -1232.1189    312.50724    414.30726    602.62876     36098.47 
   13800      305.802   -1172.3787    306.16401    518.41102    767.63585     36098.47 
   13900    308.06842    -1168.168    297.68984    524.40957     745.5339     36098.47 
   14000    301.82305   -1177.1365    322.72769    512.20085    449.37966     36098.47 
   14100    300.17519   -1203.6524    295.70161     451.1976    465.13163     36098.47 
   14200    293.38413   -1184.9341    320.21777    463.68316      230.928     36098.47 
   14300    307.87057   -1164.8579    321.04285     550.1769    160.78312     36098.47 
   14400     295.1266   -1187.3982    307.76869    456.65957    193.23162     36098.47 
   14500     291.5781   -1168.0113    323.58731    475.79806    119.10991     36098.47 
   14600    299.11494   -1247.1391    310.39444    417.60308   -169.38873     36098.47 
   14700    296.71652   -1210.1322    318.62712     451.9829     56.11758     36098.47 
   14800    298.96589   -1168.5713     348.5219    533.62347    93.221669     36098.47 
   14900    312.82879   -1154.3066    311.29732    573.43268    -346.9565     36098.47 
   15000    284.82913   -1201.1214    322.65079    411.19304  -0.15644027     36098.47 
   15100    303.45772   -1178.3291    328.04807    523.73012   -217.25485     36098.47 
   15200    295.56427   -1189.5625    317.20597    465.91425   -23.696051     36098.47 
   15300    292.68574   -1187.5516    318.85866    456.54428    331.38911     36098.47 
   15400    296.14774    -1186.039    319.34462    474.21826   -234.26017     36098.47 
   15500     300.9656   -1198.6372    339.54532    503.63541   -333.81516     36098.47 
   15600    310.40534   -1142.3413    320.79953    583.92718   -122.21042     36098.47 
   15700    296.10291   -1165.7333    347.62933    522.60573   -227.79016     36098.47 
   15800     295.6937   -1153.6344    320.01599    505.23842   -265.60074     36098.47 
   15900    302.73904   -1141.9508    332.69687    561.50312    222.13744     36098.47 
   16000    302.86758   -1154.7782    340.73872    557.29971    152.74103     36098.47 
   16100    310.89636   -1189.6118    326.45765    544.53805    257.69009     36098.47 
   16200    302.64604   -1199.4662    310.16562    481.03539    215.63718     36098.47 
   16300    291.95676   -1214.7791    310.20975    417.36714     110.4175     36098.47 
   16400    298.54032   -1204.2871    331.46876    478.92763    -11.42024     36098.47 
   16500    305.35367    -1218.293    328.68178     492.9846    100.90053     36098.47 
   16600    293.04995   -1180.0205    322.70303    469.56885    394.44441     36098.47 
   16700    293.81628   -1203.1046    341.93241    469.18402    308.14939     36098.47 
   16800    308.25881    -1175.426    318.88466     539.2084     133.3698     36098.47 
   16900    288.11374   -1147.4757    336.56845     493.6287    409.93808     36098.47 
   17000    286.48999   -1115.6764    346.15961    527.66709    117.43349     36098.47 
   17100    296.66186   -1144.9417     330.2385    528.53734    264.31578     36098.47 
   17200    307.18053   -1156.9918    352.80713    586.68286    98.419093     36098.47 
   17300    302.20145    -1139.925    323.72179    552.11973    394.15622     36098.47 
   17400    299.18162   -1152.9633    333.90572    535.59199   -45.210703     36098.47 
   17500     303.2848   -1230.9669    328.44104    470.70234    205.78476     36098.47 
   17600    296.59684   -1177.0734    333.23277    499.10554    269.04828     36098.47 
   17700    304.95069   -1175.0118    332.96762    538.72693    584.79437     36098.47 
   17800    311.95175   -1206.4735    351.81321    557.81059    279.29701     36098.47 
   17900    313.35419   -1201.5103    325.41799    542.72863    178.95463     36098.47 
   18000    301.39006   -1188.8976     325.3004    501.05197    185.48051     36098.47 
   18100    311.95106   -1187.0292    338.53407    563.97266   -70.172666     36098.47 
   18200    303.46632   -1206.9967    351.18608    518.23951    -186.3542     36098.47 
   18300    309.00401   -1191.3014    339.34579     547.1683   -123.06886     36098.47 
   18400    303.81519     -1204.49    339.86023    510.99992    267.48581     36098.47 
   18500    296.16809   -1208.3428    342.68701    475.34902    119.68283     36098.47 
   18600    287.49472   -1191.1482    349.70665    460.29154    678.44863     36098.47 
   18700    288.04998   -1211.6878     356.4068    448.96627    327.00439     36098.47 
   18800    304.80636   -1214.9441    333.69272    498.86627    343.76391     36098.47 
   18900    290.84254   -1217.5053    343.93729    443.32349    211.25358     36098.47 
   19000    296.65924   -1210.0243    351.10929    484.31361   -363.19378     36098.47 
   19100    307.67826   -1194.1525    340.28358    539.25226    239.74279     36098.47 
   19200    296.64711   -1214.8149    339.57438    467.93325   -105.77273     36098.47 
   19300    292.20555   -1174.1056    365.96796    514.92545   -429.97549     36098.47 
   19400    308.58926   -1157.4024    355.06753    594.91111   -134.17126     36098.47 
   19500    294.96658   -1137.8337    381.85297    579.58386    31.618301     36098.47 
   19600     298.8612   -1216.5244    351.55447    488.22888    79.989225     36098.47 
   19700     292.0407   -1162.9185    371.37563    530.77373    78.779111     36098.47 
   19800    307.23077   -1210.6395    344.45594    524.91146    703.88605     36098.47 
   19900    307.01136   -1242.1879     341.4958    489.40945    70.257178     36098.47 
   20000    301.15297    -1186.644    349.93985    526.87147   -251.95278     36098.47 
   20100    311.83559   -1192.2433    342.37955    562.08114    93.001136     36098.47 
   20200    293.11878   -1212.5248     351.1031    465.77627   -492.19983     36098.47 
   20300    294.77784   -1223.5994    356.51967    467.63021   -304.38135     36098.47 
   20400     295.4223   -1236.3314    345.91798    447.21462   -361.85487     36098.47 
   20500    293.63847   -1206.4074    374.44944    497.59313    230.92067     36098.47 
   20600    300.77462   -1183.3709    356.36502    534.85662    292.09206     36098.47 
   20700    294.86243   -1223.1373    368.17496    480.13068    298.67336     36098.47 
   20800    294.44176   -1258.9756    354.45802    428.67068    427.74745     36098.47 
   20900     297.4042   -1278.1745    347.69184    416.11906    448.30643     36098.47 
   21000    309.53283   -1232.4094    341.58252    510.69149    645.39111     36098.47 
   21100     301.7387   -1234.3243    376.12695     508.0303    26.572495     36098.47 
   21200    311.01315   -1222.7652    355.40997    540.86586     72.53677     36098.47 
   21300    299.33572   -1196.8661    342.91304    501.39431    659.67708     36098.47 
   21400    309.70107   -1151.6809    374.57333    625.17251    951.76824     36098.47 
   21500    295.19809   -1202.1304    343.78977    478.27217    333.90131     36098.47 
   21600    296.72162   -1201.7341    364.49199    506.26906    76.075916     36098.47 
   21700    300.76883    -1178.932    369.55593    552.46023    244.10203     36098.47 
   21800    295.23563   -1142.5221      366.633    560.89369     156.2257     36098.47 
   21900    300.55741   -1176.3263    362.96209    547.51486    298.67282     36098.47 
   22000    293.60487   -1177.3237    381.55233    533.62755    574.27154     36098.47 
   22100    310.17013   -1198.9265     344.3816    549.85909    302.41079     36098.47 
   22200    295.88085    -1203.881    344.10683    479.93011    108.04994     36098.47 
   22300    312.05678   -1184.1004    366.97869    595.82474     492.0516     36098.47 
   22400    309.09036   -1205.4338    365.22816    559.30933    347.75888     36098.47 
   22500    294.65028    -1208.206    366.53827    492.46469    375.75265     36098.47 
   22600    301.81421   -1191.2453    368.36898    543.69336    394.11405     36098.47 
   22700    302.33294   -1196.7332    370.34016    542.52533   -49.972725     36098.47 
   22800    297.32964   -1167.4627    370.07536    548.87682    177.78564     36098.47 
   22900    299.31988     -1151.63     376.3022    579.94784   -39.566563     36098.47 
   23000    296.44803   -1189.1776    361.63677    514.73152    223.73498     36098.47 
   23100    297.97752   -1225.7666    366.05033    489.48137   -80.649441     36098.47 
   23200    301.75229   -1173.5431    357.49024    550.23636    297.32856     36098.47 
   23300     305.1533   -1160.1896    369.45453    590.95343    645.23636     36098.47 
   23400    296.80085   -1187.4056    379.84488    536.30911    547.44819     36098.47 
   23500    304.64379   -1144.6121    375.59549    610.36492    515.54304     36098.47 
   23600    304.51801   -1148.2684    361.23468    591.77834    790.86048     36098.47 
   23700    311.07124    -1165.268    380.91845    624.13451    939.87301     36098.47 
   23800    293.76255    -1197.964    356.79881     488.9477    376.55391     36098.47 
   23900    301.32758   -1164.6673    373.70749    573.40647    935.88571     36098.47 
   24000     295.6523   -1240.1175    362.70589    461.25776    16.514053     36098.47 
   24100    309.99223   -1212.4503    359.16063    550.30878    924.16966     36098.47 
   24200    308.54666   -1229.7991    391.18911    558.44314    730.55171     36098.47 
   24300     308.5081    -1236.389    367.60008    528.08961    304.08156     36098.47 
   24400    298.74403   -1291.8842     365.7289    426.51296    306.40584     36098.47 
   24500     304.6764   -1233.0885    346.35719    492.79785    517.94024     36098.47 
   24600    301.55269   -1222.8385    352.37884    494.92586    774.09937     36098.47 
   24700    293.14449   -1199.7139    367.44504    495.04556    192.97902     36098.47 
   24800    296.71451   -1225.8917    384.64537    502.23259     234.6356     36098.47 
   24900    296.96021   -1218.5894    380.28621    506.28829    394.11158     36098.47 
   25000    309.37372   -1217.5816    355.50274    538.71906    600.57927     36098.47 
   25100    295.19216   -1230.9037     370.5806    476.26285      436.891     36098.47 
   25200    305.21603    -1196.563      385.936    571.34552    375.23668     36098.47 
   25300    306.64691   -1252.2557    366.38179    502.57748   -107.18941     36098.47 
   25400    301.15009   -1288.0304    357.52574    433.05789    371.11287     36098.47 
   25500      300.467   -1284.4888    353.06954    429.05042    -65.70757     36098.47 
   25600    301.13925   -1302.5992    351.27542    412.18976   -91.570492     36098.47 
   25700    291.75811   -1271.4346    383.06897     432.6715    174.77878     36098.47 
   25800    301.30505   -1261.7814    381.71527    484.19806    404.90056     36098.47 
   25900    297.93447   -1288.5096    389.08633    449.57949   -42.892522     36098.47 
   26000    304.94464   -1258.0188    370.38718    493.11209    270.21827     36098.47 
   26100    311.12286   -1243.3881    377.08792    542.41762    467.70153     36098.47 
   26200    307.50551   -1298.0328      368.528    462.83414   -140.68761     36098.47 
   26300     314.3913   -1260.1463    373.14715    536.51762   -459.73526     36098.47 
   26400    299.31133   -1283.2722    368.33462    440.29933   -365.85218     36098.47 
   26500    300.42259   -1262.9041    369.55812    466.92257    507.69765     36098.47 
   26600    301.05108   -1260.9481    402.10197    504.26813    658.63756     36098.47 
   26700    298.30282   -1287.9296     372.8684    435.60938     765.1414     36098.47 
   26800    305.32359   -1236.4511    410.27045    556.27892    414.59553     36098.47 
   26900    296.00537   -1229.8732    372.70756    483.10244    418.55153     36098.47 
   27000    291.42272   -1218.1983    384.27204    485.59228    563.02988     36098.47 
   27100    295.13339   -1238.9642    407.27669    504.63235    742.20475     36098.47 
   27200    293.83024   -1214.1566    395.49631    511.75912    341.87364     36098.47 
   27300    294.64525     -1238.17    389.98188    485.92153    528.46548     36098.47 
   27400    295.95514   -1193.0802    394.63784    541.59823    540.57546     36098.47 
   27500    318.72787   -1227.9049    408.37926    623.62655    833.11332     36098.47 
   27600     307.9366   -1234.3242    404.49332    564.46002    676.99003     36098.47 
   27700    305.35793    -1230.167    386.37794    538.82594    771.22174     36098.47 
   27800    299.41839   -1248.6615    382.28548    489.34568    545.92583     36098.47 
   27900    294.83393   -1205.6127    392.34557    521.69676    702.43546     36098.47 
   28000    296.25262   -1210.6202    400.85597    531.62338    650.94913     36098.47 
   28100    303.05122   -1266.0418    405.86867     511.9975    75.373043     36098.47 
   28200    300.13458   -1238.8994    390.48961    510.55465    49.022406     36098.47 
   28300    317.60188   -1241.1204    388.51108    585.44449    460.81699     36098.47 
   28400    306.58305   -1236.8513    393.86906       545.18   -393.02646     36098.47 
   28500    309.36667   -1230.2087    392.93874    563.49608   -34.890096     36098.47 
   28600    302.85179   -1288.5888    375.22174    457.90055    186.07305     36098.47 
   28700    298.04342   -1303.8482    396.02836    441.67624    408.52685     36098.47 
   28800    299.01584   -1250.3234    400.32096    503.89653     730.6922     36098.47 
   28900    304.98929   -1280.6911     393.9483    494.20307    460.66934     36098.47 
   29000    304.18309   -1235.6823    399.25215    540.86541    517.99854     36098.47 
   29100    301.62155   -1280.9241    411.45469    496.22791    876.71356     36098.47 
   29200    305.72646   -1250.6132     393.3258    526.99633    434.86451     36098.47 
   29300    302.17244   -1231.6362    379.03734    515.59271    624.24204     36098.47 
   29400    304.30874    -1277.983    386.21901    486.10043    90.847798     36098.47 
   29500    296.81799   -1271.4322    397.25621     469.7715    -206.2675     36098.47 
   29600    310.17168    -1266.778    403.79105    541.42403    67.138222     36098.47 
   29700    287.69881   -1257.2205    398.78494    444.22169    518.82783     36098.47 
   29800    311.71949   -1228.0672    392.66918     576.0212    408.02395     36098.47 
   29900    298.82315    -1249.132    429.16967    533.06421    275.07228     36098.47 
   30000    300.61398   -1245.8509    401.83087    517.11508    126.71539     36098.47 
   30100    299.83949   -1271.4353    409.65478    495.84785    651.13309     36098.47 
   30200    311.61381   -1267.4053    410.44043    553.97591    489.21967     36098.47 
   30300    301.34374   -1236.1662    411.43708     539.7103    515.82884     36098.47 
   30400    291.24418   -1268.1173    434.97548    485.56827    706.39717     36098.47 
   30500    306.46697    -1273.764     432.8545    546.72711     1023.364     36098.47 
   30600    304.54166   -1285.3245    409.75882    503.35337    74.699643     36098.47 
   30700    296.01911   -1282.1305    392.30562    450.50534    398.45847     36098.47 
   30800    301.95743   -1282.6218    424.22081    508.81706    703.84701     36098.47 
   30900    309.36813   -1297.7384    384.68634    487.72059    800.66041     36098.47 
   31000    306.72331   -1259.5703    415.62916    544.85609    359.13973     36098.47 
   31100    295.54141   -1290.1442    406.42531    454.44844    269.51803     36098.47 
   31200    287.65326   -1316.8526    421.28931    406.88763    134.65696     36098.47 
   31300    288.74111   -1311.7629    422.93786     418.5515     1049.441     36098.47 
   31400    300.53623   -1289.9555    396.09086    466.91844    348.45285     36098.47 
   31500    299.38374   -1313.4568    404.86329    446.97126    129.10869     36098.47 
   31600    290.97163   -1238.0466    411.64175    491.07121    236.45035     36098.47 
   31700    284.38773   -1281.4126    416.88749    423.13996   -165.45304     36098.47 
   31800    301.55067    -1296.949     405.8746    474.30196    480.71637     36098.47 
   31900    297.64722   -1239.0086    419.57505    528.26855    393.68985     36098.47 
   32000    297.78175   -1204.1652    406.20024    550.34632    490.15104     36098.47 
   32100    313.51476   -1253.8733    412.20246    577.87713     198.6912     36098.47 
   32200    302.73291   -1290.2763     434.1162    514.56923   -288.43712     36098.47 
   32300    295.84049   -1297.0822    414.83807    457.27733   -452.61851     36098.47 
   32400    309.56146    -1269.967    390.40767    522.08863   -148.45638     36098.47 
   32500    290.93177   -1233.1162     416.6817    500.86107   -522.32862     36098.47 
   32600    302.10275   -1266.7906    408.68774    509.77326    374.79269     36098.47 
   32700    306.80033   -1252.3011    399.08705    535.93191    389.71956     36098.47 
   32800    301.22015   -1253.3451    416.07563    526.61028    231.11435     36098.47 
   32900    304.69128   -1236.8459    412.68841    555.43905    58.481987     36098.47 
   33000    302.41797   -1256.5132    390.98136    503.77156    307.22061     36098.47 
   33100    313.79883   -1233.3982    383.72543    571.16134    475.28189     36098.47 
   33200    292.73096   -1237.3126     405.6045    493.73396     576.7957     36098.47 
   33300    303.54935   -1265.6141    408.76998    517.58196    648.13954     36098.47 
   33400    289.11706   -1265.4907    399.62261    443.21068    337.13982     36098.47 
   33500     297.9286   -1271.6667    421.24242    498.55191    69.135988     36098.47 
   33600     306.4967   -1256.4512    409.60976    540.92981    796.77283     36098.47 
   33700    305.83514   -1282.5994    400.86547    503.04186    899.03073     36098.47 
   33800    294.22184   -1285.1785    416.99207    464.00609   -251.49088     36098.47 
   33900    304.36205   -1301.9721    391.12408    467.25781    97.961818     36098.47 
   34000    299.00878    -1276.842    390.14519    467.17021    104.95687     36098.47 
   34100    292.07495   -1299.3911    407.70446    430.78504    361.96287     36098.47 
   34200    289.82078   -1296.2129    386.22876    402.28103   -17.248962     36098.47 
   34300    295.52701    -1307.036     396.5654    427.63148    483.99848     36098.47 
   34400    304.04983   -1328.5366    413.28558     461.4412   -84.081984     36098.47 
   34500    296.69274   -1309.7218    411.10206    444.76065   -415.06157     36098.47 
   34600    293.31923   -1319.7275    419.92642    428.30455    165.42929     36098.47 
   34700    296.27978   -1312.6009    405.86296     434.7726    142.09088     36098.47 
   34800    301.61202   -1266.1691    414.57553    514.06052   -430.70149     36098.47 
   34900    297.61472   -1288.0456    427.49675    487.00607   -434.24986     36098.47 
   35000    298.85452   -1280.0678    412.38933    485.49007   -629.36744     36098.47 
   35100    301.52526   -1269.7735    400.61364    496.10141   -282.20213     36098.47 
   35200    299.07701   -1298.4054    413.52574    469.29634   -116.69893     36098.47 
   35300    307.24072   -1247.8143    408.78856    552.11428   -349.79729     36098.47 
   35400    295.14484   -1260.2925    428.90932     504.9885   -155.14942     36098.47 
   35500    305.40253    -1258.146    399.17982    523.85078   -97.271455     36098.47 
   35600    307.43093   -1244.3672    402.30337    549.93749    456.71716     36098.47 
   35700    300.79608   -1224.0805    409.93205    547.81118     568.0573     36098.47 
   35800    304.02342   -1236.3229     418.1056    558.35534     349.8064     36098.47 
   35900    299.13105   -1280.8551    414.20302    487.76861    252.06026     36098.47 
   36000    297.46551   -1274.2289    398.29775    470.94826    221.15385     36098.47 
   36100    301.85654    -1263.024      405.207    508.94426    358.43626     36098.47 
   36200    301.45368   -1270.5023    416.29944    510.73432   -65.222803     36098.47 
   36300    305.27939   -1208.0799      425.698    599.87757    388.93054     36098.47 
   36400    292.53473   -1302.2593    407.00338    429.29758   -210.50546     36098.47 
   36500    295.13874   -1264.7589    407.62984    479.21497    256.98857     36098.47 
   36600     304.0669   -1270.3166    395.01754    501.47042    402.74782     36098.47 
   36700    304.46559   -1339.9459    403.13702    441.76578    376.69415     36098.47 
   36800    305.98983   -1297.1254    407.78068    496.13151    382.88857     36098.47 
   36900      289.839   -1306.9969    403.44397    408.79471    164.06039     36098.47 
   37000    301.51382   -1363.7766    391.68921    393.12215    765.34441     36098.47 
   37100    296.81044   -1297.9937    401.21403     447.1336    609.87272     36098.47 
   37200    293.39692   -1322.1681    411.50998    417.79928    307.11281     36098.47 
   37300    296.76097   -1298.9031     417.6346     462.4208    661.25428     36098.47 
   37400    309.33184   -1308.5968    415.70379    507.71531    172.16641     36098.47 
   37500    294.09699   -1288.1371    407.66916    451.15924    201.75723     36098.47 
   37600    302.80128   -1287.4345    410.99901    494.60347    152.81049     36098.47 
   37700    304.85739   -1311.5221    427.55979    496.38637    163.98389     36098.47 
   37800    297.68866    -1273.475    416.07601    490.49081    9.5728407     36098.47 
   37900    302.77147   -1316.7149    394.80404    448.99312    173.14586     36098.47 
   38000    295.82779   -1294.5685    423.55816    468.45366    78.084925     36098.47 
   38100     296.5384   -1339.9493    433.17652    435.90872    320.99065     36098.47 
   38200    301.81634   -1335.7988    428.18202    458.96244    279.92925     36098.47 
   38300    293.58789   -1293.6327    433.33343    469.02282    508.58442     36098.47 
   38400    294.65484   -1211.0079    445.94745     569.0926    532.61247     36098.47 
   38500    306.42843   -1242.3398     415.7846    560.90691    181.24628     36098.47 
   38600    306.94289   -1198.3984    428.65017    620.04325    280.28377     36098.47 
   38700    304.65671   -1252.1385    404.47948    531.78101    59.944826     36098.47 
   38800    302.37962    -1264.115    421.40141    526.41613    194.87335     36098.47 
   38900    303.64338   -1274.4397    421.67928    522.09138    81.397753     36098.47 
   39000    306.23052   -1270.2005    415.52419    531.88965    53.168917     36098.47 
   39100    293.20721    -1259.136    421.13677    489.59922    113.52372     36098.47 
   39200    302.28674   -1236.1826    429.44699    561.97358     353.0298     36098.47 
   39300    293.24224   -1256.0699     444.2605    515.94766    234.01788     36098.47 
   39400    298.17213   -1263.1435    443.77093    530.70621    403.20871     36098.47 
   39500    307.95228   -1299.0297    435.63582    530.96793    444.31482     36098.47 
   39600    309.48526   -1260.6357    414.64771    555.31503    893.94896     36098.47 
   39700     303.1585   -1262.5612     419.2363    529.33145    1088.0371     36098.47 
   39800    294.51505   -1278.3418    425.96099    481.13934    629.73873     36098.47 
   39900      294.228   -1289.8372    424.61453    466.99769    307.45824     36098.47 
   40000     308.0676   -1280.4763    427.03757    541.44528     60.00874     36098.47 
   40100    296.94122   -1276.9536    418.12384    485.67568    449.37765     36098.47 
   40200    307.02617   -1289.6013    424.96587    525.53312    580.97146     36098.47 
   40300    306.66925   -1318.3475    445.02564     515.2306    335.24537     36098.47 
   40400    299.91243   -1293.2773    442.19534    506.87672    538.66168     36098.47 
   40500    289.86015    -1299.195    425.23809    438.48654    203.03441     36098.47 
   40600    292.82302   -1301.5432    417.66393    441.97963    741.90609     36098.47 
   40700    299.38043    -1328.056    406.15521    433.64897    705.08708     36098.47 
   40800    306.34148   -1306.2364    424.43189    505.26388    594.47807     36098.47 
   40900    305.54451   -1335.4731    424.37226    472.35905    715.77927     36098.47 
   41000    304.83694   -1280.7303    439.94628    539.47205    31.841268     36098.47 
   41100    298.09437   -1287.4442    438.61169    500.89424    11.510644     36098.47 
   41200     302.1279   -1299.2642    418.89487    487.62065   -188.36018     36098.47 
   41300    298.58209    -1325.598    433.79478    460.13186   -70.602158     36098.47 
   41400    299.80105   -1329.1802    428.60902    456.88321    430.90555     36098.47 
   41500    302.23318   -1380.5141    412.30174     400.2543    635.31979     36098.47 
   41600    308.10463   -1367.9408    432.50511    459.61603    206.64904     36098.47 
   41700     298.6126    -1326.493    415.42564    441.00583    814.40533     36098.47 
   41800    298.33281   -1352.2113    430.45533    429.05035    610.78542     36098.47 
   41900    303.53227   -1282.1367    427.07166     519.2837    982.55242     36098.47 
   42000    298.16978   -1309.9684    425.18733    465.28714    311.08491     36098.47 
   42100    283.55573   -1318.1319    453.07726    418.84334    244.01914     36098.47 
   42200    314.56572   -1297.9426    428.75941    555.12339    547.13873     36098.47 
   42300    306.11983   -1321.9835    408.54011    472.62142    200.91504     36098.47 
   42400     305.6226   -1297.3965    433.21858    519.63554    163.76535     36098.47 
   42500    297.13296   -1322.5464    438.96414     461.7914    14.206768     36098.47 
   42600    309.58173   -1369.0792    451.71722    484.37776   -318.02218     36098.47 
   42700     292.2743   -1366.1475    452.26202    409.48886    28.731223     36098.47 
   42800    293.56506   -1330.2858    464.06017    462.99306    142.93681     36098.47 
   42900    297.74402   -1304.2727    429.22037     473.0881    619.12878     36098.47 
   43000    302.55647   -1322.8195    430.67798    477.78897    430.13038     36098.47 
   43100    297.59415   -1331.0632    454.90936    471.30793   -77.571326     36098.47 
   43200    301.71349   -1370.1258    426.52206    422.50978    139.82085     36098.47 
   43300    294.32043   -1339.4157    440.04174    433.26495    170.38505     36098.47 
   43400    303.79806   -1290.5127    447.00621    532.04566    801.24219     36098.47 
   43500    304.62393   -1370.7707    452.93498    461.45587    449.03704     36098.47 
   43600     292.8129   -1338.5391    432.34296    419.61689    203.33539     36098.47 
   43700    307.01138   -1354.9869    428.86884    463.98357    497.46354     36098.47 
   43800    296.97578   -1286.5647    423.79793    481.89517    1.2082629     36098.47 
   43900     302.3905   -1315.3945    413.43486    467.21935   -20.431446     36098.47 
   44000    297.76586   -1302.1451    431.78193    477.87612   -183.16988     36098.47 
   44100    300.35028   -1308.1924    426.40811    478.15688    160.59283     36098.47 
   44200    309.87702   -1287.4074    447.68308    563.35243    131.71723     36098.47 
   44300    292.46847   -1284.8579    400.27921    439.67483     7.421874     36098.47 
   44400    300.13607    -1337.737    433.38767    454.62187   -45.860969     36098.47 
   44500    305.21421   -1343.6858    434.27948    472.55796   -238.00109     36098.47 
   44600     303.3699   -1377.8169    427.51449    423.31112   -447.32085     36098.47 
   44700    300.23279   -1306.0526    425.26076    478.61733   -159.60108     36098.47 
   44800    295.89452   -1318.8304    453.68589    474.62169   -454.18806     36098.47 
   44900    303.84561   -1295.3338    448.36423    528.79792   -34.763694     36098.47 
   45000    309.55064   -1319.9271     484.7578    566.42968   -757.51223     36098.47 
   45100    298.28763    -1327.147    420.30119    443.75598  -0.77778787     36098.47 
   45200    299.86816   -1301.5672    422.57949    478.77046   -708.05685     36098.47 
   45300    296.20954   -1287.6639    436.33058    489.85912   -597.59904     36098.47 
   45400     304.6763   -1279.8248    456.48207    556.18596    185.75737     36098.47 
   45500    306.75935   -1347.6939    445.33638    486.60292    -73.56834     36098.47 
   45600    303.82751    -1328.291    432.29738    479.69192   -465.40005     36098.47 
   45700    292.41728   -1328.0422    421.21654    417.19606    -381.9721     36098.47 
   45800    302.07008     -1337.26    425.30536    455.77354    271.47021     36098.47 
   45900     295.5359   -1319.5241    441.90278    460.52102    163.21014     36098.47 
   46000    299.30392   -1323.9442    439.87596    471.13514    439.78026     36098.47 
   46100    306.42608   -1302.1045    451.63058    536.97758    1161.6161     36098.47 
   46200    299.65892   -1278.8112    445.64675    523.64637    72.479049     36098.47 
   46300    295.78516   -1318.8473    442.96175    463.38537    193.73015     36098.47 
   46400    301.65555   -1312.1668    450.10941    503.79384    596.70328     36098.47 
   46500    285.24525    -1295.443    460.66832    456.77312   -252.35576     36098.47 
   46600    288.40901   -1323.6521    425.56385    407.78465    384.42662     36098.47 
   46700    297.47647   -1328.8802    450.51349    468.56228    542.68039     36098.47 
   46800    288.71991   -1294.9424    450.67057    463.00875    586.76922     36098.47 
   46900     302.5246   -1323.9006     441.8202    487.70574    590.53733     36098.47 
   47000    308.14554   -1318.0036    444.08802     521.3214    391.60084     36098.47 
   47100    302.13658   -1339.0029    445.67108    474.69745    309.05081     36098.47 
   47200    292.23008   -1318.1818    450.28833    455.28063    849.99334     36098.47 
   47300    297.95743   -1300.2059    436.66282    485.56359   -80.660913     36098.47 
   47400    300.39635    -1307.068    433.55528    486.63703    559.49263     36098.47 
   47500    285.87254   -1270.7153    428.41776    452.09052   -82.414426     36098.47 
   47600    305.08349   -1302.0096     442.6923    522.05515    110.88872     36098.47 
   47700    302.99689   -1301.5529     439.6915    510.06323   -84.655218     36098.47 
   47800    301.11244   -1295.0288    436.60039    504.96364    241.07177     36098.47 
   47900    305.26202    -1323.762    408.49428    466.91305    659.20821     36098.47 
   48000     296.6682   -1301.9765    421.26342    462.55615    913.43953     36098.47 
   48100    307.90792   -1319.4573    445.33451     520.0382     498.7249     36098.47 
   48200    299.28664   -1342.3705    419.70245    432.45713    707.01228     36098.47 
   48300    304.01878   -1317.7175    436.56864     495.4027    224.98734     36098.47 
   48400    295.11421   -1358.6207    441.30267    418.91499    128.51074     36098.47 
   48500    296.43836   -1304.5012     436.3127    474.04004    21.293038     36098.47 
   48600    300.66858   -1365.9749    430.28425    425.69174    134.83455     36098.47 
   48700    297.55748   -1360.4474    442.25026    429.09867    311.69191     36098.47 
   48800    304.54895   -1334.8199    439.18752    483.31977    363.54661     36098.47 
   48900    298.21098   -1305.3121    432.35894    477.30155    39.706887     36098.47 
   49000    302.10668   -1297.6812    448.84461    519.05723     374.6035     36098.47 
   49100    310.28434    -1285.393    420.24868    539.77678    421.70646     36098.47 
   49200    292.03357   -1298.5236    439.15007    462.91087    20.168278     36098.47 
   49300    300.70459   -1279.1671     437.4911    519.86946    99.003322     36098.47 
   49400    311.50274   -1307.2639    424.30078    527.47468   -172.00454     36098.47 
   49500    294.14822   -1300.4209    441.73398    473.17221   -542.08823     36098.47 
   49600    299.16141   -1294.2403    434.07648    494.39433   -124.75279     36098.47 
   49700    303.76821   -1267.5212    428.61947    536.51531    380.78561     36098.47 
   49800    305.07351   -1295.2739     449.9231    535.97643   -76.449618     36098.47 
   49900    294.75612   -1333.1305     437.9253    439.40639   -295.61024     36098.47 
   50000    303.28934   -1299.5999    450.87467    524.52353    21.564241     36098.47 
   50100    306.14813   -1311.5716    448.00342    522.62476   -1056.4187     36098.47 
   50200    308.62584   -1313.5085    427.99143    511.89461   -834.38259     36098.47 
   50300    305.45144    -1338.204    445.03258    489.86705   -726.71896     36098.47 
   50400    306.10286     -1362.46    449.03833    472.56626   -748.52864     36098.47 
   50500    299.16114   -1343.7789    435.24125    446.01923   -255.81363     36098.47 
   50600    310.40518    -1317.406     444.7293    532.79152    171.43469     36098.47 
   50700    291.39188   -1319.2934    451.82731    451.91277   -216.14256     36098.47 
   50800     305.5063    -1303.706     445.3984     524.9792    290.72261     36098.47 
   50900    301.16605   -1329.1123    432.31984    466.84234    124.26026     36098.47 
   51000    288.75169   -1327.1377    424.53476    404.82157   -285.70643     36098.47 
   51100    302.39687   -1306.1457    420.19054    483.25264    220.53241     36098.47 
   51200    295.17952   -1329.8027    434.24779    440.97387   -119.33381     36098.47 
   51300    289.96674   -1327.4547    442.63111    428.10247   -157.69251     36098.47 
   51400    286.43711   -1336.0813    443.05386    403.91692    212.25169     36098.47 
   51500    298.69631   -1328.3584    421.73885    445.83271     259.0157     36098.47 
   51600    294.02053   -1350.6083    444.86363    425.53633    445.58349     36098.47 
   51700    292.63246   -1336.4693    463.38816    451.91493    43.595224     36098.47 
   51800     294.5794   -1350.4525    434.44398    417.80294   -288.67251     36098.47 
   51900    291.68039   -1341.2672    436.47682    415.89478   0.70814344     36098.47 
   52000    310.48639   -1367.7028    421.48916    459.62229    390.76829     36098.47 
   52100    288.93414   -1351.1629    453.44246    410.53018    179.16312     36098.47 
   52200    295.25248   -1322.0907    428.76832    443.53672    287.95959     36098.47 
   52300    305.90841   -1298.2464    445.51647    532.37764    420.91737     36098.47 
   52400    301.22587   -1346.8353    454.53825     471.6087    47.865875     36098.47 
   52500    288.84518    -1357.514    431.54665    381.88048    140.41672     36098.47 
   52600    299.61597   -1335.9288    458.15268    478.84015    188.64939     36098.47 
   52700    295.31251   -1363.0336     437.3661    411.46342    393.18689     36098.47 
   52800     299.8778   -1318.2526    443.47628    483.02551    707.81647     36098.47 
   52900    298.56075   -1363.3824     439.6626    428.11858     704.1727     36098.47 
   53000    307.07445   -1368.0469    438.13581    460.47611    656.57503     36098.47 
   53100    299.22229   -1307.9042    430.27182    477.20136    621.81145     36098.47 
   53200    296.45398   -1394.0096    442.59416    390.88385    538.45747     36098.47 
   53300    306.42716   -1340.2716      449.028    496.21274    216.62222     36098.47 
   53400    296.24853   -1358.9808    428.81193    411.20015    210.92102     36098.47 
   53500    300.82393   -1352.7173    479.22617    488.59463    216.11543     36098.47 
   53600    291.55477   -1354.5993    459.80678    425.32388     784.0912     36098.47 
   53700    306.84282   -1370.3257    484.10484    503.11757      1046.53     36098.47 
   53800    301.26814   -1354.3868    449.60839    459.31864    729.54704     36098.47 
   53900    300.01918   -1351.9198    441.68401    448.20619    422.10653     36098.47 
   54000    290.94476   -1352.6273    459.60645    424.33352    286.57382     36098.47 
   54100    302.07741   -1337.0639    453.64842    484.34584    445.77684     36098.47 
   54200    307.65496   -1325.2652    459.10994    526.86038    626.17436     36098.47 
   54300    301.70645   -1357.6844    458.01472      466.412    176.57338     36098.47 
   54400    304.53068   -1384.6922    441.55101     435.7282   -101.25667     36098.47 
   54500    302.36703   -1347.5046    459.60324    481.17137    65.394203     36098.47 
   54600    304.30818   -1386.9432    446.48859    437.40735    392.80026     36098.47 
   54700    307.85092   -1381.1937    441.18064    453.88985    339.19171     36098.47 
   54800    306.12068   -1373.4043    445.13442    457.79881    84.825704     36098.47 
   54900    306.32174   -1379.8893    447.33643    454.42611     -321.811     36098.47 
   55000     304.7386   -1323.3942    454.31195     510.7286   -409.12849     36098.47 
   55100    308.49058   -1329.4969    470.76606    538.06841    257.07951     36098.47 
   55200    302.24777   -1398.5087    472.58591    442.60995    110.98525     36098.47 
   55300    294.22922   -1393.4505    447.61921    386.39461   -694.67441     36098.47 
   55400    304.85864   -1330.4642    430.03046    479.92056   -390.62616     36098.47 
   55500    297.40959    -1372.135    437.31523    411.80636   -582.46942     36098.47 
   55600    308.24117   -1370.5599    457.32859    482.43855   -715.27355     36098.47 
   55700    300.06839   -1333.8073    452.72014    477.57762   -272.53574     36098.47 
   55800    298.71367   -1367.2819    432.16085    417.40984   -106.28694     36098.47 
   55900    308.37658   -1363.1109    448.22124    481.39335   -103.55054     36098.47 
   56000    295.91523   -1350.5904    435.24438    424.51392    159.29545     36098.47 
   56100    299.40084   -1366.8488    484.01994    472.81335   -186.26074     36098.47 
   56200    300.53697   -1339.1146    448.48619    470.15806   -51.761962     36098.47 
   56300    291.28939   -1379.2152     431.2302    370.92978     557.2822     36098.47 
   56400    298.46601   -1392.2302    435.38422    394.56343     441.2723     36098.47 
   56500    306.55323    -1363.624     448.6313    473.03446    266.66394     36098.47 
   56600    297.45357   -1385.8484    448.95916    409.93605    479.41736     36098.47 
   56700     301.9292   -1384.0747     441.5768     424.5924    355.00465     36098.47 
   56800    302.21083   -1386.4087    448.21796     430.1747    188.73372     36098.47 
   56900    305.18644   -1379.0956    428.98542    431.72841    -22.60129     36098.47 
   57000    301.53601   -1369.3165    464.67332    460.66677    302.78185     36098.47 
   57100    299.02314   -1365.2434    487.34514    476.03378    574.60867     36098.47 
   57200    294.63865   -1374.5119    442.95294    402.52077    522.34169     36098.47 
   57300    295.65772   -1379.5594     454.2968    413.43136    483.57613     36098.47 
   57400    313.33704   -1374.4252    471.74954    516.06756    305.30339     36098.47 
   57500    302.78758   -1363.5712    465.13163     472.5373    117.00557     36098.47 
   57600    301.45715   -1360.8611    464.48665    468.57845    8.1275003     36098.47 
   57700     295.3887   -1337.0924    455.17128    455.55479    251.76412     36098.47 
   57800    290.19824   -1359.7834    472.56989    426.76069   -76.035754     36098.47 
   57900    302.18819   -1364.8466    485.52859    488.94493   -469.61386     36098.47 
   58000    302.56649   -1352.9807    457.91946    474.91455    -302.6848     36098.47 
   58100    310.92089   -1358.9331      470.242    519.11222    516.30294     36098.47 
   58200    306.37755    -1324.069    444.22894    507.39168    129.99846     36098.47 
   58300     301.4063   -1376.2593    446.48925    434.95259    179.63742     36098.47 
   58400    299.83185   -1361.1242    450.10512    446.57467   -105.19586     36098.47 
   58500    301.99552   -1354.5915    461.00718    473.80625   -243.64431     36098.47 
   58600    305.33531   -1334.0193    490.01493    538.50828    248.04002     36098.47 
   58700    303.41352   -1342.0941    465.25672    496.97369    231.76366     36098.47 
   58800     295.4444   -1347.9707    476.50767      466.265   -75.919606     36098.47 
   58900    297.80101     -1344.11     462.9609    467.24941    332.28708     36098.47 
   59000    303.60299   -1378.1071    459.93081    456.49265     8.045731     36098.47 
   59100    310.96088   -1334.6448    442.56001    515.89955    493.37038     36098.47 
   59200    290.96547   -1379.6422    492.55614    430.36209    408.12346     36098.47 
   59300    296.41473   -1410.2891    508.66515    440.49763      47.1774     36098.47 
   59400    303.65018   -1386.9504     470.1068    458.03898    521.92629     36098.47 
   59500     299.5746   -1375.2145    482.03732    463.25177     487.0043     36098.47 
   59600    293.03565   -1376.1276    474.71641    425.41038    509.67377     36098.47 
   59700    298.08109   -1363.0232    452.15677    438.80019   -228.44397     36098.47 
   59800    295.25833   -1356.4942    470.03078    450.42214   -80.790277     36098.47 
   59900    305.86487   -1348.8439    443.57666    479.64313    231.86898     36098.47 
   60000    296.96694   -1327.4658    453.27768    470.43381    490.86262     36098.47 
   60100    301.47937   -1344.9132    467.16437    487.30471    92.509871     36098.47 
   60200    291.74116    -1381.044    462.81973    402.73614   -682.88714     36098.47 
   60300    296.45844   -1364.1553    464.13258    442.29679   -594.06404     36098.47 
   60400    304.45735   -1412.3856    447.75884     413.9106    136.43143     36098.47 
   60500    302.92658   -1428.8431    483.11151    425.87472   -294.75998     36098.47 
   60600    299.61021   -1420.5186    475.12812    411.19977   -308.75068     36098.47 
   60700    305.86865   -1435.7852     435.6572    384.79955   -398.31645     36098.47 
   60800    292.60805   -1416.5415    453.95984    362.30379   -809.85043     36098.47 
   60900    300.83352   -1408.0765    451.69165    405.74435    -38.12801     36098.47 
   61000    307.65982    -1440.326    451.45662    404.16833     41.75923     36098.47 
   61100    306.25818    -1426.656    464.97668    425.01196    497.06508     36098.47 
   61200    302.83643   -1448.9364    445.31883    367.58053     851.9724     36098.47 
   61300    294.55164    -1407.309    486.71132    413.08808     34.20852     36098.47 
   61400    302.82479   -1426.9216    445.70413    389.92793    106.66898     36098.47 
   61500    309.27999   -1425.1601    463.43101    438.64446   -103.54415     36098.47 
   61600    294.66986   -1404.7395    455.43618    384.91772   -512.37807     36098.47 
   61700    297.91409    -1399.016    474.46565    424.36006   -140.18325     36098.47 
   61800    300.73705   -1390.2093    448.77317    420.25623    375.59246     36098.47 
   61900    294.85515   -1384.9489    462.77203    412.88316    215.73576     36098.47 
   62000    299.64405   -1393.5085    459.14551    422.38044    281.28264     36098.47 
   62100    289.48384   -1388.3481     481.2509    403.64231     553.0769     36098.47 
   62200    299.29267   -1378.4579    465.49804    442.19259      763.882     36098.47 
   62300    298.78637   -1406.4651    482.34056    428.73548    1190.0788     36098.47 
   62400    294.01178   -1373.7198    459.16879     416.6904    1030.7828     36098.47 
   62500    302.23349   -1446.4693    430.32363    352.32243    453.08472     36098.47 
   62600    313.83711   -1408.9482    446.80065    458.85992    566.43795     36098.47 
   62700    304.46486   -1424.1173    445.59714    400.05118    -364.0423     36098.47 
   62800    292.48367   -1386.1355    496.77086    434.95771   -187.52939     36098.47 
   62900    294.84882    -1436.306     468.6648    367.39018   -367.32369     36098.47 
   63000    307.19963   -1413.1877    470.90417     448.6705   -447.11775     36098.47 
   63100    302.16528   -1372.0316     462.1101    458.23768   -138.89688     36098.47 
   63200    314.44009   -1354.2325    458.92896    528.43411   -343.77111     36098.47 
   63300    301.03531   -1383.5102    457.79557    437.32824   -382.57632     36098.47 
   63400    307.02596   -1359.1353    510.17986     541.2122   -367.90781     36098.47 
   63500    297.32542   -1376.2349    453.02183    423.03201    119.47451     36098.47 
   63600    304.81176   -1356.0366    460.84952    484.95504    845.22748     36098.47 
   63700    303.67509   -1319.9578    466.40223    521.43979    485.38241     36098.47 
   63800    308.62499   -1358.2572    474.26169    513.41232   -57.757901     36098.47 
   63900    299.20677   -1371.4535    477.60294    460.91289    14.832139     36098.47 
   64000    311.50461    -1396.988    474.91671    488.37502    217.81593     36098.47 
   64100    301.97812   -1423.5248    481.86395    425.65092    69.278005     36098.47 
   64200    306.80698    -1409.768    471.60249    451.01064     52.52571     36098.47 
   64300    286.20217   -1399.6743    447.47551    343.68179    78.110457     36098.47 
   64400    295.67487   -1388.5794    470.31575      420.508     377.9639     36098.47 
   64500    295.70741   -1404.8117    470.51429    404.62153   -68.771045     36098.47 
   64600    303.88514   -1402.0092    507.99105    481.92827    17.561897     36098.47 
   64700    307.41991   -1367.9286    479.32822    503.35103    394.77239     36098.47 
   64800    288.27211   -1396.6513    481.93105    390.53275    356.61984     36098.47 
   64900    305.95509   -1383.2678    467.11942    469.17047    219.61239     36098.47 
   65000    308.45794   -1373.2698    474.64928    498.03086    166.89132     36098.47 
   65100    304.50619   -1348.7737    486.88625    516.87102    376.28026     36098.47 
   65200    302.18487   -1388.8206    489.91732     469.3446   -92.657381     36098.47 
   65300    288.31316   -1414.0804    483.50788    374.86631    159.87454     36098.47 
   65400    312.91406   -1362.4936    498.03572    552.37022    602.69211     36098.47 
   65500    291.99686   -1379.6242    464.53881    407.03268     308.1796     36098.47 
   65600    295.22664   -1382.5897    463.73296    417.88538    89.070128     36098.47 
   65700    301.31282   -1386.9377     491.2938    468.65545    -264.7526     36098.47 
   65800    302.51444    -1450.166     463.6301    383.20425   -639.13839     36098.47 
   65900    291.77321   -1416.8026    480.34932    384.65221    -386.0598     36098.47 
   66000     289.0904   -1381.2216    495.24412    422.98059   -233.28167     36098.47 
   66100    299.79017   -1370.4602    492.40678    479.35161    176.22681     36098.47 
   66200      302.773   -1367.0422    515.70194    519.57055   -127.61138     36098.47 
   66300     300.3157   -1380.8524    463.12845     442.0606   -146.46095     36098.47 
   66400    297.29696    -1420.192    495.35873    421.28289    -367.6776     36098.47 
   66500    295.10485   -1403.8417    479.00426    411.35315   -320.64195     36098.47 
   66600    300.35119   -1407.3283    450.32456    402.94148    -387.0922     36098.47 
   66700    296.43676    -1451.621    468.95119    359.55148    453.92655     36098.47 
   66800    298.87109   -1438.6352    480.98467    395.59312    486.86882     36098.47 
   66900    304.29663   -1419.8876    493.58503    451.50706    564.48576     36098.47 
   67000    296.82947   -1450.4293    478.86275    372.43286      48.1891     36098.47 
   67100     302.8569    -1404.364    472.54949    439.47631    167.57196     36098.47 
   67200    302.76223    -1415.721    466.93685      422.078   -169.17004     36098.47 
   67300    298.49917   -1390.0017    483.33976    444.89765    121.45881     36098.47 
   67400     298.8674   -1456.2625    461.43098    358.39537    65.543125     36098.47 
   67500    298.42501   -1439.3774     488.3111    400.15756    309.51781     36098.47 
   67600    300.16518   -1428.3775    458.39354    389.11912    166.02504     36098.47 
   67700    294.48384   -1421.8877    473.85519    385.34628    1018.1408     36098.47 
   67800    296.07238   -1398.2889    490.23052    432.51312    1218.7503     36098.47 
   67900     309.4346   -1393.9738    467.54934     474.6491    858.92461     36098.47 
   68000    300.76042    -1414.899    463.48104    410.38021     1256.809     36098.47 
   68100    310.72257   -1453.7435    464.70936    417.87119    723.74158     36098.47 
   68200    296.94298   -1358.8673    469.32875    454.97488    316.59253     36098.47 
   68300    287.96347   -1371.8147    515.96838    448.00922   -686.20746     36098.47 
   68400    310.33146   -1368.2116    465.25632    502.17922   -178.95504     36098.47 
   68500    292.04495   -1373.1301    476.61128    425.81705   -410.52655     36098.47 
   68600    296.36818    -1381.537    462.73454    423.10832   -318.16487     36098.47 
   68700    307.21058   -1383.7671    498.65311    505.88953   -475.67212     36098.47 
   68800    299.90867   -1399.3534    468.64021    427.22841   -532.39324     36098.47 
   68900    294.14665   -1353.1148    477.67941    456.41665   -610.63047     36098.47 
   69000    297.98644   -1353.0465    491.16247    487.35396    497.97708     36098.47 
   69100    305.15617   -1361.2419    506.22224    526.68186    221.83906     36098.47 
   69200    297.48226   -1341.8703    473.19123    478.27615    371.49541     36098.47 
   69300    296.47376   -1397.0234    468.99624    414.36164    181.50923     36098.47 
   69400    305.28804   -1404.1797    467.21607    445.33498   -215.78962     36098.47 
   69500    294.67074   -1387.7603    481.87441    428.33921   -75.665368     36098.47 
   69600    294.84099   -1400.9878    444.10666    378.11472   -477.13886     36098.47 
   69700    289.62415   -1426.4887    463.64311    348.52922   -815.68818     36098.47 
   69800     292.5275   -1398.6269    457.93766    383.83153   -523.79705     36098.47 
   69900    296.29673   -1420.4099    465.52538    386.70279   -316.86856     36098.47 
   70000    308.30112   -1384.9084    519.41738    530.45032    76.385086     36098.47 
   70100     289.6406   -1388.1817    491.74737    415.01503    315.38756     36098.47 
   70200    301.91809   -1360.7928    484.91482    491.16196    568.05626     36098.47 
   70300    301.92748   -1396.6501     491.4464    461.87873    61.609875     36098.47 
   70400    302.57842   -1420.5181    474.85224    424.36403    279.04682     36098.47 
   70500    305.41083   -1431.4576    483.57166    434.96858   -439.06864     36098.47 
   70600    291.88829   -1405.1966     489.5432    405.97314   -560.25869     36098.47 
   70700    292.75908    -1460.304    474.73635    340.00164   -476.41313     36098.47 
   70800    294.12129   -1459.0508    486.09026    358.77667   -33.744207     36098.47 
   70900    298.80937   -1428.6058    484.63816     408.9965    654.91718     36098.47 
   71000    300.94614   -1410.3242     491.7344    444.04931     494.1435     36098.47 
   71100    298.04884   -1395.6377    481.54695    435.42985    58.901938     36098.47 
   71200    292.31939   -1389.0845    487.10761    421.60162   -149.83892     36098.47 
   71300    302.32036   -1395.0951    480.90668    454.67295   -480.08557     36098.47 
   71400    301.03378   -1405.7574    485.51576    442.79427    -244.6031     36098.47 
   71500    288.61299   -1371.7562     485.5963    420.63655    82.511278     36098.47 
   71600    315.77149   -1343.3468    479.26385    565.68315   -172.13425     36098.47 
   71700    296.85725   -1379.7325    466.30092    430.69364   -347.28541     36098.47 
   71800    307.05835   -1381.6409    493.36881     502.0422   -436.87047     36098.47 
   71900    300.46032    -1420.643    478.28386    418.08024    53.926266     36098.47 
   72000     303.1814   -1423.4138    498.22827    447.57448    406.02502     36098.47 
   72100    300.76544   -1402.0741    461.12673     420.8736    652.86821     36098.47 
   72200    303.60302   -1379.1642    474.56316    470.06801    719.58365     36098.47 
   72300    305.85988    -1362.923    474.48126    496.44599    168.51721     36098.47 
   72400    291.82549   -1375.0382    487.67972    433.98365    269.59906     36098.47 
   72500    304.49442   -1380.9034    487.05014    484.85198    192.88466     36098.47 
   72600    290.99453   -1386.4127    476.46588    407.63294   -79.670707     36098.47 
   72700    299.57556   -1372.3301    483.39786    467.50115   -16.024062     36098.47 
   72800    296.55995   -1346.7413    480.83124    476.86908    11.184982     36098.47 
   72900    299.98207   -1388.0694    477.67089    447.87542   -57.523519     36098.47 
   73000    291.08041    -1433.347    462.53847    347.16011   -315.03528     36098.47 
   73100    306.91148   -1470.2526    457.18538    376.58203    -1.282145     36098.47 
   73200    304.82515   -1408.0166    469.41636     441.6025    310.47025     36098.47 
   73300    299.42681   -1406.1085    464.70551    414.35683    501.78999     36098.47 
   73400    305.80922    -1384.194    480.01998    480.48442    317.00004     36098.47 
   73500    298.94243   -1403.1987    470.79091    421.15885    487.49076     36098.47 
   73600    307.88325   -1374.6834    482.20265    501.56858    466.24635     36098.47 
   73700    298.98534   -1381.2955    465.59337    438.05883    614.17673     36098.47 
   73800    304.16005   -1367.1669    467.32171    477.34605    388.31079     36098.47 
   73900    300.06156   -1352.5589    483.68591    489.76088    503.25936     36098.47 
   74000    304.85661    -1412.004    483.08898    451.43015    155.94405     36098.47 
   74100    288.36265   -1389.0983    494.49046    411.05508    712.09165     36098.47 
   74200    301.01698   -1402.1923    493.45841    454.22603    325.28163     36098.47 
   74300    309.30825   -1391.9646    479.21798    487.75486    830.60904     36098.47 
   74400    297.11212   -1373.5726    461.38993    433.09659     405.0352     36098.47 
   74500     303.5071   -1334.9304    502.02222     541.3266    457.30262     36098.47 
   74600    298.68434   -1381.9938    459.48779    429.89197     564.8155     36098.47 
   74700    294.04085    -1420.117    443.45511    354.71107   -312.83216     36098.47 
   74800    298.19671   -1385.7129    458.31485    422.79207   -696.08595     36098.47 
   74900    304.75226   -1390.5447    481.48566    470.81364   -432.64238     36098.47 
   75000    303.58091   -1370.8663     465.4558    469.15844   -116.43872     36098.47 
   75100    294.96643   -1364.9197    454.11129    424.75551   -195.31244     36098.47 
   75200    298.49805   -1415.3383    489.75767     425.9739   -350.67251     36098.47 
   75300    308.83208   -1407.6897    454.63071    445.28646   -161.56904     36098.47 
   75400     304.6167   -1389.5327    462.48149    452.20767    61.238462     36098.47 
   75500    307.46334   -1423.2079    454.61951    423.55962    151.08075     36098.47 
   75600    307.34577   -1412.9934    449.94991    428.57219    315.80344     36098.47 
   75700    298.09895   -1381.2763    493.92772    462.39888    942.38788     36098.47 
   75800    297.18862   -1378.3025    485.98978    453.31289    836.40662     36098.47 
   75900    294.10431   -1405.5757    455.73922    381.82387    513.68659     36098.47 
   76000    296.91844   -1394.1306    474.53267     424.8043   -34.663986     36098.47 
   76100    296.29298   -1387.6343    507.16485    461.10088   -150.03945     36098.47 
   76200    292.95409   -1436.9741    459.69838    349.17655    231.29176     36098.47 
   76300    290.38044   -1453.8504    490.79959    351.74846   -174.01473     36098.47 
   76400    302.97266   -1435.8933    478.07412    413.99573     174.1746     36098.47 
   76500    295.45768   -1389.9545    489.62343    437.45715   -385.14829     36098.47 
   76600    310.24086   -1415.5684    441.25545    430.41124   -521.67965     36098.47 
   76700    304.49273   -1379.2073    478.79709    478.28732   -352.51751     36098.47 
   76800    295.36279   -1401.2313    483.39846    419.52569    147.87751     36098.47 
   76900    309.13702   -1392.3716    483.52272    490.87734    8.8528812     36098.47 
   77000    296.44348   -1351.8268     469.5817    460.00666    304.61587     36098.47 
   77100    306.54242   -1384.2236    493.95081    497.70544   -56.007924     36098.47 
   77200    292.11542   -1415.5048    492.06577    399.21586   -857.66254     36098.47 
   77300    307.85159   -1402.9566    455.28489    446.23422    145.26801     36098.47 
   77400    301.36175   -1411.1151    469.69371    423.09957   -471.89077     36098.47 
   77500    304.18875   -1434.8946    452.49636    394.92288    461.42889     36098.47 
   77600      293.626   -1426.6275    464.07748     366.9446   -87.357905     36098.47 
   77700    302.42148   -1441.0325    472.08834    400.37501   -725.08229     36098.47 
   77800    311.88865   -1408.1911    450.38012    454.37418   -784.07529     36098.47 
   77900    289.40063    -1379.319     464.0844    395.12818   -785.34324     36098.47 
   78000    299.20285   -1410.8628    483.64544    427.52841   -582.90169     36098.47 
   78100    292.59526   -1432.5886     481.9384    374.17742    373.42197     36098.47 
   78200    294.32264    -1416.605    446.72483    362.76878    331.36086     36098.47 
   78300    303.15549   -1401.4947    487.51325     458.6613    142.71414     36098.47 
   78400    304.74981   -1388.4888    481.65515     473.0279    255.49461     36098.47 
   78500    295.92659   -1437.9386    484.11253    386.08524    612.71824     36098.47 
   78600    303.99314   -1409.6115     474.3455    441.16951    304.64622     36098.47 
   78700    298.97034   -1376.7796    441.72239    418.63574   -121.93304     36098.47 
   78800    315.36934    -1369.803     461.6408    519.78302    508.88893     36098.47 
   78900    305.76381   -1411.0293    470.78816    444.21164   -363.80411     36098.47 
   79000     306.7126   -1401.9736    464.18384    450.95899   -283.02941     36098.47 
   79100    293.25437   -1419.6044    456.04859    364.25612   -436.62415     36098.47 
   79200    291.31715   -1386.4321    467.26697    399.87537    -667.5399     36098.47 
   79300    305.15754   -1372.6718    482.60054    491.63645   -525.84518     36098.47 
   79400     298.1864   -1375.9453    475.96756    450.16572   -249.78727     36098.47 
   79500    294.61454    -1378.622    457.86521    413.21382   -148.18411     36098.47 
   79600    308.71249   -1419.0202    479.72925    458.51301    131.18966     36098.47 
   79700    303.75739   -1398.6296      474.569    451.30738    553.01023     36098.47 
   79800    299.64319   -1407.7809    474.38749    423.34619    293.08241     36098.47 
   79900     296.5622   -1409.9404    482.57506    415.42394    223.18103     36098.47 
   80000    301.64807   -1378.2899    478.60368    466.13116    949.94198     36098.47 
   80100    305.20192   -1371.5174     485.6046    495.99586    1147.3483     36098.47 
   80200    294.46624    -1381.262    477.56916    429.60626    1073.0518     36098.47 
   80300    302.66188   -1383.5432    509.02441    495.88901    358.86222     36098.47 
   80400    301.69111   -1420.4003    459.72466    405.33661    318.57162     36098.47 
   80500    290.42905   -1389.5069     470.6731    396.18551   -53.096137     36098.47 
   80600    297.99917   -1372.3878     482.7842    459.69204    160.21258     36098.47 
   80700    301.71908   -1383.6484    470.36203    452.85254    56.807352     36098.47 
   80800     302.0099   -1379.5328    495.05265    482.97551    457.58675     36098.47 
   80900    297.62255   -1390.1068    464.10906    421.59272    251.38828     36098.47 
   81000    308.09477   -1362.4124    496.24329    528.83789    373.91412     36098.47 
   81100    302.31253   -1375.2148    469.16963    462.78078     104.4769     36098.47 
   81200    294.72644   -1412.0136    481.67057    404.13419   -544.15963     36098.47 
   81300    295.43081   -1333.4775    480.36603    484.55507   -187.89633     36098.47 
   81400    307.52887    -1338.374    471.44294    525.51366   -159.00845     36098.47 
   81500    302.28885   -1329.8322    486.71105    525.59752    83.368386     36098.47 
   81600    299.64005   -1330.4403    518.05519    544.34028   -532.68794     36098.47 
   81700    301.59603   -1383.4326    482.96089    465.11003    174.04136     36098.47 
   81800    298.90471   -1379.1164    477.00485    451.28424     8.389699     36098.47 
   81900    298.56332   -1356.8544    491.83761    486.83326    369.67777     36098.47 
   82000     307.0106   -1356.0277    511.74638    545.81674   -508.39987     36098.47 
   82100    297.74416   -1370.6998    480.17812    457.61933   -298.62551     36098.47 
   82200     295.9038   -1383.0048    462.48361    419.28697   -83.773838     36098.47 
   82300    292.55566   -1405.8646    479.75516     398.5389   -403.78243     36098.47 
   82400    303.60656   -1361.8545    493.83673    506.66736    30.820633     36098.47 
   82500    295.24462   -1363.7298     468.3773      441.471    992.93539     36098.47 
   82600    298.12745   -1380.5308    528.02129      497.367    80.641774     36098.47 
   82700    287.82365   -1387.0025    467.75738     383.9773   -43.606724     36098.47 
   82800    290.15047   -1379.7368    484.27441    418.29559     9.435891     36098.47 
   82900    302.89094   -1405.0738     488.3033    454.67436    253.74385     36098.47 
   83000    306.36535   -1379.4307    488.14106    495.88686   -222.42173     36098.47 
   83100    302.05732    -1354.775    484.09116    496.98651   -305.23393     36098.47 
   83200    288.19499   -1356.6913    477.83557    426.04803   -730.65938     36098.47 
   83300    303.65004    -1394.587     474.1801    454.47512   -202.08513     36098.47 
   83400    296.38752   -1397.2626    473.59939    418.33516    228.24663     36098.47 
   83500    304.32598   -1405.6406    491.58135    463.88331   -176.51977     36098.47 
   83600    302.86284   -1389.9904    493.50511    474.83232   -93.170377     36098.47 
   83700     300.7112   -1385.0235    470.12044    446.67224    510.42789     36098.47 
   83800    300.87801   -1396.6922    463.05855      428.697   -247.03987     36098.47 
   83900    298.58202   -1404.7393    496.06743    443.26285   -352.48485     36098.47 
   84000    303.99149   -1402.0218     486.6831     461.0893     31.16706     36098.47 
   84100      292.503   -1421.6126    478.94455    381.74178   -420.13294     36098.47 
   84200    303.81057   -1386.7145    511.95134    500.84569    427.60635     36098.47 
   84300    293.76583   -1415.6594    500.91978    415.38816    334.21695     36098.47 
   84400    301.76597   -1418.2089    498.32103    446.46336   -145.35615     36098.47 
   84500    312.28825   -1406.6707    489.79561    497.11943    262.12329     36098.47 
   84600     294.3667   -1374.5523    505.46864    463.76478   -152.33584     36098.47 
   84700    294.20494   -1401.1165    489.99471    420.99415    74.078154     36098.47 
   84800    294.80331   -1411.9179    471.23777    394.14513    536.86931     36098.47 
   84900    296.12573   -1400.5183    475.80913    416.10383    484.22565     36098.47 
   85000    303.91946   -1363.2788    500.24844     513.0715    390.40932     36098.47 
   85100    301.15588   -1358.4828    494.17003    499.27597    402.82769     36098.47 
   85200    291.96685   -1356.0511     498.5221    464.45325   -226.13693     36098.47 
   85300    302.08835   -1384.8233    516.48797    499.47557    176.42016     36098.47 
   85400    297.66116   -1367.4417    480.11619    460.43972   -390.87693     36098.47 
   85500    293.20808   -1355.0225    486.34148    458.92127    98.045925     36098.47 
   85600     294.2884   -1369.8051    474.02496    436.71368    5.9381317     36098.47 
   85700    300.56951    -1405.995    483.14024    438.07906    157.37076     36098.47 
   85800    302.98097   -1358.9633    495.67738    508.56659    532.94732     36098.47 
   85900    308.48982   -1385.3302    507.84669    519.31229     254.1002     36098.47 
   86000    282.74248   -1379.2156    485.21604    386.21614    161.50786     36098.47 
   86100    298.16937     -1410.45     519.2231    458.83945   -181.91374     36098.47 
   86200    288.28814   -1375.0948    517.79849    448.02933    162.10708     36098.47 
   86300    293.59964   -1398.5335    492.07205    422.91377   -299.33039     36098.47 
   86400    292.88053   -1409.0209    502.76835    419.86671    -112.1161     36098.47 
   86500    306.24142   -1389.9672     468.3606     465.0088   -556.05289     36098.47 
   86600    306.19398   -1347.8195    492.45249    531.03357    40.504032     36098.47 
   86700    302.06554   -1376.7616     499.9739    490.91989    48.609017     36098.47 
   86800    304.83313   -1388.1086    480.92011    473.05029    162.16449     36098.47 
   86900    302.22673   -1397.5322    495.83392    466.73921   -336.46882     36098.47 
   87000     304.0719   -1378.1585      492.943    491.57663    219.89667     36098.47 
   87100    304.02638    -1394.173    494.29919    476.71217    109.92109     36098.47 
   87200    299.54213   -1425.5794    492.01718    422.71979   -33.391602     36098.47 
   87300    303.58209   -1410.1739    519.10449    483.50493    207.20237     36098.47 
   87400    295.25745   -1436.5025    461.73611    362.11524   -80.999621     36098.47 
   87500    299.13091   -1398.1113    462.77222     419.0809    284.44944     36098.47 
   87600    297.41392   -1416.4368    512.39053    442.59953    279.95225     36098.47 
   87700    295.44039   -1400.8875     499.2449    436.06726   -42.451745     36098.47 
   87800    301.61588   -1421.7949    499.28302    443.15974   -637.59184     36098.47 
   87900    308.44026   -1429.9179     474.2253    440.87877   -826.91991     36098.47 
   88000    299.67182   -1400.9786    490.96279    446.85335   -410.39936     36098.47 
   88100    302.49863   -1394.9881    462.99721    437.67767   -455.00324     36098.47 
   88200    294.05224   -1400.8251     485.9203     416.5198   -466.57309     36098.47 
   88300    301.05298   -1417.2916     505.5946    451.42583   -701.25954     36098.47 
   88400    292.13834   -1346.0552    485.61045    462.31399   -620.60684     36098.47 
   88500     300.1532   -1418.1195    484.24414    425.17344   -900.46102     36098.47 
   88600    295.65763   -1397.3894    463.88191    405.18608   -649.45865     36098.47 
   88700    297.22155   -1353.2742    530.69958    523.20012   -574.63807     36098.47 
   88800    306.58261   -1388.3413    498.51264    498.33159    -394.0688     36098.47 
   88900    304.98137   -1372.5556    499.72118    508.07566    26.769086     36098.47 
   89000    299.81811   -1397.7303    495.02416    454.82544    260.28133     36098.47 
   89100    300.48779   -1436.6702    488.66688    412.56042    850.72748     36098.47 
   89200    297.57524   -1418.2559    485.45032    414.57059    749.77623     36098.47 
   89300    319.63862   -1416.8184    522.63855    553.09605    775.39713     36098.47 
   89400    301.38682   -1448.1204    508.70013    425.21418    772.01856     36098.47 
   89500    287.19956    -1461.306    485.45807    324.54871    762.34194     36098.47 
   89600    303.45437   -1432.0378    506.04171    447.99995    543.88525     36098.47 
   89700    291.67186   -1407.1477     461.9411    375.43995    553.46186     36098.47 
   89800    303.65574   -1442.4632    489.90076    422.34533    635.87646     36098.47 
   89900    306.58439    -1456.039    480.23132    412.36059    342.51703     36098.47 
   90000    294.78749   -1392.2502    488.67923    431.18266    25.059957     36098.47 
   90100    301.60091   -1397.7612    507.75106    475.59366    897.49536     36098.47 
   90200     293.7731    -1424.613    498.21553    403.76318    653.29803     36098.47 
   90300    302.85942   -1422.3681    478.18856    427.12264     658.0674     36098.47 
   90400    296.15339   -1404.0791    479.82894    416.68811    483.54065     36098.47 
   90500    291.80793   -1407.0089    493.91828    408.17204    279.21325     36098.47 
[...]
  984200    298.56876   -1500.8345    515.03767    366.07781    152.76431     36098.47 
  984300    300.32204   -1511.6435    546.45837    394.62821    -424.5811     36098.47 
  984400    295.80786   -1482.2378    525.53216    382.66814   -77.274932     36098.47 
  984500    305.94425   -1438.5748    539.39002    486.08506   -465.20114     36098.47 
  984600    305.10783   -1473.3166    526.07751    434.24357    312.99316     36098.47 
  984700    305.03396   -1508.0655     516.9829    390.06559    351.02915     36098.47 
  984800    302.25537   -1493.7031    521.53665    396.40064    58.491055     36098.47 
  984900     306.8091   -1476.5775    506.87369    419.48193    413.12411     36098.47 
  985000    300.53836   -1480.8691    524.98499    404.90862    -163.9084     36098.47 
  985100    293.47756   -1469.5995    529.29212    388.51511   -1020.8006     36098.47 
  985200    291.82921    -1494.617    517.10937    343.85142   -344.10632     36098.47 
  985300    299.95205   -1497.6564    519.76858    380.25019    189.27339     36098.47 
  985400    303.53835   -1457.2461    492.32941    409.45958    302.44124     36098.47 
  985500    298.93204   -1488.1791    561.37328    426.71372    316.29096     36098.47 
  985600     298.5681   -1475.6716    564.67478    440.87491    26.540232     36098.47 
  985700    302.75011   -1486.8493    520.08467    404.04262    439.45953     36098.47 
  985800    288.46519   -1460.0016    527.76722    373.89286    -80.36914     36098.47 
  985900    300.28289     -1447.26    549.96988    462.34592   -403.31613     36098.47 
  986000    295.18476   -1477.0293    496.40389    355.92701   -338.39557     36098.47 
  986100    305.41368   -1510.2122    517.51065    390.16596   -514.28018     36098.47 
  986200     291.9665   -1466.3527    557.24515    412.87311   -495.05158     36098.47 
  986300    298.95793   -1430.8609    518.51518    441.29102   -392.66469     36098.47 
  986400    306.64315   -1422.4479    515.58063    481.56707   -839.00211     36098.47 
  986500    302.30981    -1471.523    516.60927    413.89985   -982.85119     36098.47 
  986600    288.74474   -1444.3302    542.61892    405.68174   -577.15215     36098.47 
  986700    300.62445   -1483.2419    517.12395    395.06464    -503.7888     36098.47 
  986800    296.50816   -1437.2762    529.53738     434.8058    52.525074     36098.47 
  986900    303.23096   -1423.8495    549.00373    498.13869     204.8135     36098.47 
  987000    306.57982   -1426.2241    569.75057     531.6741    83.557907     36098.47 
  987100    290.01157    -1446.766    560.09609     426.4591    923.09998     36098.47 
  987200    299.25743   -1484.1432    519.80979    390.65949    293.75403     36098.47 
  987300    303.54008   -1491.3746    528.98787     411.9974    480.05938     36098.47 
  987400    298.74938   -1507.0091    538.25715    383.94059    634.88028     36098.47 
  987500    309.56142   -1451.3988    536.62033    486.86938    474.28708     36098.47 
  987600    295.54631    -1478.369    506.52664    366.34716    301.44666     36098.47 
  987700    290.78463   -1489.3582    524.05254    351.32362   -555.14908     36098.47 
  987800    301.96754   -1495.4106    563.25308    435.10631   -563.57743     36098.47 
  987900    304.35793   -1503.6433    510.34295    384.78682    268.75677     36098.47 
  988000    297.50776   -1527.2421    521.04009     340.8686    43.043528     36098.47 
  988100    304.49037   -1510.8018    511.11781    379.00289   -367.85787     36098.47 
  988200    300.60279    -1516.769    518.36262    362.67805   -671.05011     36098.47 
  988300    303.19835   -1510.3194    518.37257     380.8899   -802.09643     36098.47 
  988400    300.82143    -1508.136    511.32234    365.26077   -192.98449     36098.47 
  988500    304.94503    -1508.745    518.02287    390.02334     69.35079     36098.47 
  988600    292.60018   -1510.4489    529.90228     344.3032    166.25079     36098.47 
  988700    304.22933   -1509.0249    516.10504    384.58509    141.82016     36098.47 
  988800    304.04562   -1497.0897    538.90362    418.48704    167.36305     36098.47 
  988900    297.10325   -1525.5404    502.48108    322.17979     296.7242     36098.47 
  989000    315.73557   -1507.0763    510.36026    432.88739    9.1475546     36098.47 
  989100     302.8884   -1524.9425    524.96051    371.45142   -302.30052     36098.47 
  989200    295.75093   -1530.7319    546.34116    354.72525   -353.21276     36098.47 
  989300     293.9103    -1451.065    506.29592     386.0128     414.7311     36098.47 
  989400    304.60575   -1444.0516    527.73949    462.89721    582.69445     36098.47 
  989500    301.84719    -1488.034    503.12413    381.80902    35.355962     36098.47 
  989600    307.36316   -1480.1366    528.15282    439.71058    542.86771     36098.47 
  989700     297.0888   -1491.0556    548.83269    402.95075    448.61187     36098.47 
  989800    310.33722   -1463.9618    510.93492    452.13367    849.88437     36098.47 
  989900    303.55327   -1497.5003     543.3453    420.28887    701.39091     36098.47 
  990000    297.04408   -1508.4235    533.33155    369.87924    658.00593     36098.47 
  990100    300.28963   -1426.1285    531.97087    465.50891    321.12732     36098.47 
  990200    291.85887   -1449.3726    523.19625    395.31699   -109.77346     36098.47 
  990300    294.23066   -1426.0915     537.8686    444.00957     948.7726     36098.47 
  990400    293.84095    -1456.272    552.81307    427.00902    495.85599     36098.47 
  990500    293.45329   -1444.1074    517.12574    401.73095    414.65221     36098.47 
  990600    301.07221   -1438.5539    533.19262    457.84873    272.16986     36098.47 
  990700    302.13952   -1423.5554    554.40523    498.89242   -7.5703742     36098.47 
  990800    295.25572   -1479.7745    512.31412    369.41339    422.21631     36098.47 
  990900    291.55404   -1422.3722    537.66633    435.40724   -82.556879     36098.47 
  991000      288.372   -1494.2283    558.86833    370.34527    51.895987     36098.47 
  991100    298.70242   -1429.5977    549.87739    472.75959   -195.28478     36098.47 
  991200    301.38854   -1423.0962    531.32894    472.87499    244.12674     36098.47 
  991300     300.7586   -1440.9914    525.91588    446.71448   -551.12141     36098.47 
  991400    308.44371   -1465.2116    542.61864    473.99403   -528.57208     36098.47 
  991500    302.12809   -1447.7955    510.41653    430.61184   -445.71474     36098.47 
  991600    299.32057   -1475.3339    513.47733    393.42225   -153.95363     36098.47 
  991700    291.53483    -1443.296     546.5282    423.25828    654.95871     36098.47 
  991800    303.65379   -1478.1954    531.51532    428.21886    103.70597     36098.47 
  991900    305.11549   -1499.8799    542.05938    423.69673    333.17503     36098.47 
  992000    299.72015   -1502.3146    536.41099    391.18436    323.87409     36098.47 
  992100    297.25552   -1490.6106    520.56511    375.88306    626.75105     36098.47 
  992200    306.22114   -1492.4083    539.99258     434.1078    391.63837     36098.47 
  992300    298.13932   -1458.2795    519.60821    411.25896   -354.76206     36098.47 
  992400    286.40275   -1439.1412    535.65981    393.30741   -843.14734     36098.47 
  992500    300.65216   -1429.8775    524.98825    456.41879   -783.69495     36098.47 
  992600    312.17778   -1470.8148      504.955    447.63453    199.00526     36098.47 
  992700    293.84743   -1459.4388    517.59233    388.65074   -5.9181301     36098.47 
  992800     287.8952    -1471.958    560.26911    391.85759    474.06277     36098.47 
  992900     287.1052   -1463.8485    510.62069    346.74165     193.6829     36098.47 
  993000    296.66554   -1450.3186    545.32175     438.2604    7.8951982     36098.47 
  993100    295.49693   -1461.6336    539.14452    415.47678   -160.96614     36098.47 
  993200    298.70313    -1489.155    536.42983    399.75793    -517.0606     36098.47 
  993300    307.66527   -1483.9775    517.75633    426.84118    368.08973     36098.47 
  993400    292.67502   -1475.8082    542.04333     391.4239    271.38515     36098.47 
  993500    306.23855   -1539.8445    522.63091    369.38873    459.21688     36098.47 
  993600    320.26859   -1506.3768    552.49054    496.24205    75.336681     36098.47 
  993700    297.15951   -1491.9728    554.97968    408.50067    62.480198     36098.47 
  993800    294.34996   -1475.6031    556.44998     413.6195    170.95397     36098.47 
  993900    307.55839   -1478.6479    510.30202    424.23248    564.47666     36098.47 
  994000     293.5075   -1478.5544    530.90912    381.31277    808.83609     36098.47 
  994100    302.57295   -1475.8891    536.33496    430.45089    323.78872     36098.47 
  994200    288.39929   -1446.0393    540.94686     400.7364    304.87884     36098.47 
  994300    303.61996   -1497.7278    530.80451    407.82249    974.94904     36098.47 
  994400    292.70609   -1443.6713    525.57263    407.23076     46.45219     36098.47 
  994500    297.04484   -1438.5267     518.6822     425.1301    335.80786     36098.47 
  994600    303.22735   -1483.6571    537.92355    427.23454     1.500757     36098.47 
  994700    293.11544   -1509.5589    513.90394    331.52794    181.04572     36098.47 
  994800    302.20936   -1495.9718    562.85631    435.24333   -528.72837     36098.47 
  994900    303.31547   -1493.5527    533.25454     413.0689   -163.34339     36098.47 
  995000    296.45876   -1495.2857    522.84836    369.88366   -48.485625     36098.47 
  995100    304.97501   -1496.0681    529.38884    414.20192    -110.0444     36098.47 
  995200    292.86372   -1525.2633    521.83907    322.61892   -420.35445     36098.47 
  995300     308.4391   -1493.4571    525.49026    428.59928    142.77486     36098.47 
  995400     304.0432   -1480.8597    529.01577    424.81815   -906.34156     36098.47 
  995500    298.77153   -1475.6147    505.45786    382.63596   -159.90631     36098.47 
  995600    289.93569   -1505.2274    544.79166    352.34967   -644.56041     36098.47 
  995700    298.85962   -1486.1009      497.964    365.05474   -418.11493     36098.47 
  995800    292.76906   -1489.7477    539.80893    375.67572    128.78347     36098.47 
  995900    297.56694   -1559.4262    516.35043     304.2628    100.26549     36098.47 
  996000    309.31888   -1504.4843    545.39852    441.46388   -133.91151     36098.47 
  996100    312.96756   -1532.1242    536.82909    421.77515   -736.94283     36098.47 
  996200    294.10275   -1488.0069    527.31881    370.96519   -553.59697     36098.47 
  996300    304.41362   -1464.2845    529.80759    443.86242   -33.978962     36098.47 
  996400     298.7271   -1453.6676    550.10868    449.03269    9.6594271     36098.47 
  996500    309.34655   -1475.5128    552.83663    477.99881    208.99104     36098.47 
  996600    299.29801   -1440.0872    567.14717    482.23656   -334.36612     36098.47 
  996700    301.43623   -1451.6571    525.78152    438.98255   -398.65066     36098.47 
  996800     304.7032   -1466.5175    520.44835    433.58139   -310.45444     36098.47 
  996900    306.06558   -1441.9164     504.5941    448.49693   -18.186931     36098.47 
  997000    294.66391   -1474.2407    527.97037    387.92373    43.411036     36098.47 
  997100    304.55624   -1512.2826    516.31907    383.02157    779.19282     36098.47 
  997200    297.82009   -1477.0702    522.17899    393.59365    167.00756     36098.47 
  997300    313.22359   -1493.8117    517.14947    441.56734     575.0262     36098.47 
  997400    302.36721   -1508.7477    527.00555    387.33136   -91.555139     36098.47 
  997500     298.3442   -1522.1924     515.6673    344.33287    510.02246     36098.47 
  997600    300.87915   -1503.5764    538.69732    397.45672    1179.7856     36098.47 
  997700    299.94299   -1534.8131    520.12413    343.40801   -49.520988     36098.47 
  997800    301.25374   -1494.0429     524.1732    394.16215   -222.98983     36098.47 
  997900    288.66439   -1519.5083    511.23956     298.7605   -700.40769     36098.47 
  998000    306.19466   -1531.2877    532.86128    387.97725   -960.14048     36098.47 
  998100    301.49965   -1500.5352    528.12771    392.73789   -700.13346     36098.47 
  998200    304.10337   -1498.9484    537.74933    415.73553   -209.21108     36098.47 
  998300     299.9456    -1515.527    527.97677    370.55858   -139.93007     36098.47 
  998400    284.87365   -1509.8707    501.83193    281.82654    123.43765     36098.47 
  998500    303.96133   -1511.8018     519.8261    384.31575   -114.31282     36098.47 
  998600     305.7325   -1511.7057    515.70753    388.31288    539.49375     36098.47 
  998700    310.30977   -1519.9286    539.28543    424.39309    484.18138     36098.47 
  998800    295.53374   -1568.8396     534.9405    304.23349    631.99557     36098.47 
  998900    302.52144   -1519.1882    521.30076    371.88435    697.79937     36098.47 
  999000    295.97818   -1507.2518    528.97629    361.86939    824.62893     36098.47 
  999100    317.70135   -1574.4068    511.89875    375.99617    493.54352     36098.47 
  999200    296.66329   -1535.9498    518.04608     325.3433    422.11248     36098.47 
  999300    286.13911    -1501.113    511.44666     305.9288    459.21068     36098.47 
  999400    302.36915   -1512.5234    528.47605    385.03496    88.559021     36098.47 
  999500    308.25003   -1547.1309        512.5    361.07911   -129.48307     36098.47 
  999600    299.19401   -1557.0905    508.74055    306.35581    230.30649     36098.47 
  999700    287.82918   -1515.3048    527.26382    315.20649    728.72911     36098.47 
  999800    303.93907   -1501.4336    533.86285    408.61987    32.606633     36098.47 
  999900    291.50471   -1501.3083    516.26196    334.84333   -537.19114     36098.47 
 1000000    300.47701   -1485.9246    525.32615     399.9165   -954.92493     36098.47 
 1000100    296.73027   -1436.3954    521.12793    428.28278   -592.56564     36098.47 
 1000200    303.00507   -1465.7078    535.29803    441.55185    131.58198     36098.47 
 1000300    298.10403   -1440.8012    539.81348    448.78275     406.1459     36098.47 
 1000400    294.60195   -1478.6116    512.46172     367.7637    398.34742     36098.47 
 1000500    302.46482   -1477.2797    526.59326    418.82901      475.898     36098.47 
 1000600    303.62094   -1474.8213    515.32028    415.24924    788.22397     36098.47 
 1000700    302.58272   -1483.4815    510.02712    396.59491    735.03449     36098.47 
 1000800    300.02826   -1483.0636    520.89435    396.31383   -4.3886773     36098.47 
 1000900    302.57844   -1504.7711     490.4091    355.66791    408.21236     36098.47 
 1001000    290.38791   -1488.7713    519.22981    345.29152     -491.152     36098.47 
 1001100    301.68774    -1461.945    545.19697      449.249   -566.80383     36098.47 
 1001200    300.90895   -1440.2023    512.61627    434.88466   -278.06138     36098.47 
 1001300    299.48292   -1486.7701    530.75058    399.99437   -890.79037     36098.47 
 1001400    293.49204   -1457.7745    520.33018    391.44375   -677.04003     36098.47 
 1001500    302.08559   -1469.2437    513.39072     411.9454   -220.66082     36098.47 
 1001600    295.42999   -1494.0224    508.85504    352.49546   -435.61605     36098.47 
 1001700    302.77429   -1486.2808     519.6291    404.26501   -627.16744     36098.47 
 1001800    295.77868   -1507.2344    520.13076    352.13795   -469.96322     36098.47 
 1001900    304.43744   -1499.8444    522.94937    401.55212   -409.96886     36098.47 
 1002000     308.8572   -1481.5812    500.82998      417.708   -274.49297     36098.47 
 1002100    308.30926    -1487.715    519.35134    427.61453   -467.62378     36098.47 
 1002200    293.56513   -1503.3397    510.04956     335.9289    7.6025183     36098.47 
 1002300    307.39509   -1514.2469    496.05311     373.6452      260.781     36098.47 
 1002400    287.56971   -1503.0328    526.05886     325.0987     756.5682     36098.47 
 1002500    302.97423   -1487.2511    544.48906       429.06    864.18609     36098.47 
 1002600    296.99876   -1484.2444    534.04175    394.56329    398.53119     36098.47 
 1002700    291.42212   -1475.6348    548.33778    392.21881    218.13646     36098.47 
 1002800    298.61319   -1434.8191    523.82533    441.08209    9.5820655     36098.47 
 1002900    291.20123   -1505.3155    557.08659    370.28669    83.949918     36098.47 
 1003000    304.28044   -1481.5289    511.60087    407.80829    490.81752     36098.47 
 1003100    303.18844   -1479.4431    551.24793    444.59671    34.280954     36098.47 
 1003200    305.16565   -1483.1664    502.46196    401.04004   -179.68202     36098.47 
 1003300    302.38536   -1490.9717     532.6759    410.85991    -758.8129     36098.47 
 1003400    302.11343   -1464.3838     512.8216    416.36219   -271.64794     36098.47 
 1003500    294.10553   -1506.2305    525.45518    350.89048   -408.18416     36098.47 
 1003600    288.02521   -1494.3103    528.79905     338.6238   -898.26009     36098.47 
 1003700    290.89308   -1468.7201    528.95655    377.35685   -922.27071     36098.47 
 1003800     304.4102   -1523.8346    501.10157     355.5908   -478.48882     36098.47 
 1003900    302.97015    -1537.706    505.75949      339.857   -718.52453     36098.47 
 1004000    297.37884   -1487.8781    521.69808    380.30688   -414.32607     36098.47 
 1004100    306.74816   -1449.3652    515.06739    454.61198    57.523279     36098.47 
 1004200    303.47773   -1414.2441    495.41638     455.2741   -80.764645     36098.47 
 1004300    299.73072   -1455.6797    517.81673     419.2729   -24.076342     36098.47 
 1004400    290.48274   -1477.6667      532.148    369.74373   -401.41706     36098.47 
 1004500    303.43587   -1444.0003    530.30541    460.21732   -161.73276     36098.47 
 1004600    293.19303    -1455.463    530.79776    402.86896   -530.37649     36098.47 
 1004700      291.046   -1469.8864    521.10368    369.03002   -169.01281     36098.47 
 1004800    300.82121   -1439.7511    496.56963    418.89199    310.98497     36098.47 
 1004900    299.53118   -1460.3022    527.66252    423.59271    247.59239     36098.47 
 1005000    291.47052   -1450.2829    516.08952    385.54151   -439.07213     36098.47 
 1005100    312.72035   -1447.4666    534.06367    502.54808   -395.76135     36098.47 
 1005200    299.79393   -1499.3607    527.47029    385.53167   -178.21382     36098.47 
 1005217    313.65287   -1480.7957     505.6308    445.00839   -59.920617     36098.47 
Loop time of 601.667 on 32 procs for 1000000 steps with 1520 atoms

Performance: 143.601 ns/day, 0.167 hours/ns, 1662.048 timesteps/s
100.0% CPU use with 32 MPI tasks x no OpenMP threads

MPI task timing breakdown:
Section |  min time  |  avg time  |  max time  |%varavg| %total
---------------------------------------------------------------
Pair    | 250.46     | 282.63     | 317.27     | 108.1 | 46.97
Bond    | 1.3469     | 1.647      | 1.9565     |  10.6 |  0.27
Neigh   | 39.04      | 39.117     | 39.185     |   0.8 |  6.50
Comm    | 230.78     | 265.35     | 297.71     | 111.7 | 44.10
Output  | 0.38704    | 0.40546    | 0.88515    |  13.5 |  0.07
Modify  | 9.0939     | 9.3465     | 9.485      |   3.7 |  1.55
Other   |            | 3.166      |            |       |  0.53

Nlocal:        47.5000 ave          77 max          24 min
Histogram: 3 2 2 7 7 3 3 3 1 1
Nghost:        2078.09 ave        2203 max        1952 min
Histogram: 4 6 3 3 0 0 1 7 5 3
Neighs:        5513.75 ave       10626 max        2333 min
Histogram: 3 3 6 7 3 5 3 1 0 1

Total # of neighbors = 176440
Ave neighs/atom = 116.07895
Ave special neighs/atom = 2.0513158
Neighbor list builds = 49526
Dangerous builds = 0
The system volume is 36098.4700639485
Lattice vectors
33.0493507284389 0 0
0 33.0493507284389 0
0 0 33.0493507284389
Total wall time: 0:10:06
