LAMMPS data file
 1521 atoms
 1020 bonds
 535 angles
 41 dihedrals
 1 impropers
 6 atom types
 7 bond types
 3 angle types
 4 dihedral types
 1 improper types
 0 15 xlo xhi
 0 15 ylo yhi
 0 15 zlo zhi
 0 0 0 xy xz yz

# Atom types
#
# 1 O_2
# 2 O_3
# 3 C_3
# 4 C_2
# 5 H_
# 6 H__HB

# Bond Coeffs
#
# 1 O_2*C_2
# 2 O_3*C_3
# 3 C_3*C_3
# 4 C_3*H_
# 5 C_3*C_2
# 6 O_3*C_2
# 7 O_3*H__HB

# Angle Coeffs
#
# 1 O_3
# 2 C_3
# 3 C_2

# Dihedral Coeffs
#
# 1 A1
# 2 A2
# 3 B1
# 4 I1

# Inversion Coeffs
#
# 1 1

 Masses

 1 16
 2 16
 3 12.01
 4 12.01
 5 1.01
 6 1.01

 Atoms # full

1 1 1 0 7.46484313477297 0.448936577068517 5.79599532996616
2 1 2 0 4.33600440626823 2.65512870007762 10.5602059348179
3 1 3 0 5.05205679493558 1.57976170803037 9.93974295518167
4 1 3 0 5.54056243953669 2.02799145747016 8.54303789436532
5 1 3 0 6.32996171723746 0.917350456480943 7.79744862587551
6 1 4 0 6.81912547443398 1.29819691981391 6.45478687770058
7 1 2 0 6.5789678791987 2.53583257492889 5.94023622456822
8 1 3 0 6.99680308232399 3.0237445613879 4.65948498545155
9 1 3 0 6.5163725230825 4.47412651286392 4.47519075716559
10 1 5 0 4.39194220106073 0.714995529126904 9.836247502247
11 1 5 0 5.91159233633006 1.31011720989605 10.5586775621521
12 1 5 0 6.18000947049817 2.90731713591469 8.66312168104198
13 1 5 0 4.67072247242371 2.31625042207399 7.94561631713664
14 1 5 0 5.68646677801729 0.0405828200805711 7.68652403455813
15 1 5 0 7.19380225245196 0.630965034937905 8.40312772411808
16 1 5 0 6.57213756650102 2.39842309391941 3.87012760631719
17 1 5 0 8.08708298767471 2.9917614161559 4.59021986862145
18 1 5 0 5.4272588187577 4.51881826039475 4.53406975812991
19 1 5 0 6.83263247013713 4.84981684801896 3.50036162959497
20 1 5 0 6.94046514136207 5.11140518992554 5.2534613456394
21 1 6 0 3.7242495428807 2.74049724943347 11.7776847263796
22 2 6 0 1.48291262143292 11.1219477564469 7.26511611021124
23 2 2 0 2.44291262143292 11.1219477564469 7.26511611021124
24 2 6 0 2.68291262143292 10.1919477564469 7.26511611021124
25 3 6 0 14.0265363750234 4.85351848224178 3.8468868448399
26 3 2 0 14.9865363750234 4.85351848224178 3.8468868448399
27 3 6 0 15.2265363750234 3.92351848224178 3.8468868448399
28 4 6 0 12.1690020609833 3.35391971905716 14.0096845419612
29 4 2 0 13.1290020609833 3.35391971905716 14.0096845419612
30 4 6 0 13.3690020609833 2.42391971905716 14.0096845419612
31 5 6 0 5.83444854986854 0.926962859639898 9.05202583526261
32 5 2 0 6.79444854986854 0.926962859639898 9.05202583526261
33 5 6 0 7.03444854986854 -0.00303714036010211 9.05202583526261
34 6 6 0 8.19537646763027 4.11162080633454 14.947672910057
35 6 2 0 9.15537646763027 4.11162080633454 14.947672910057
36 6 6 0 9.39537646763027 3.18162080633454 14.947672910057
37 7 6 0 -0.276228693109006 8.02826977725141 7.61142514762469
38 7 2 0 0.683771306890994 8.02826977725141 7.61142514762469
39 7 6 0 0.923771306890994 7.09826977725141 7.61142514762469
40 8 6 0 4.93895234467462 10.4051914908364 9.26996031892486
41 8 2 0 5.89895234467462 10.4051914908364 9.26996031892486
42 8 6 0 6.13895234467462 9.47519149083644 9.26996031892486
43 9 6 0 4.0524749520421 4.74010593648069 5.22519111167639
44 9 2 0 5.0124749520421 4.74010593648069 5.22519111167639
45 9 6 0 5.2524749520421 3.81010593648069 5.22519111167639
46 10 6 0 12.4546858474798 2.52403537201695 0.939062442630529
47 10 2 0 13.4146858474799 2.52403537201695 0.939062442630529
48 10 6 0 13.6546858474799 1.59403537201695 0.939062442630529
49 11 6 0 5.80091719675809 15.0245816893317 2.92932485695928
50 11 2 0 6.76091719675809 15.0245816893317 2.92932485695928
51 11 6 0 7.00091719675809 14.0945816893317 2.92932485695928
52 12 6 0 9.12626272693276 11.922513253931 6.03656740975566
53 12 2 0 10.0862627269328 11.922513253931 6.03656740975566
54 12 6 0 10.3262627269328 10.992513253931 6.03656740975566
55 13 6 0 8.62121189173311 0.74328886735253 1.77342154551297
56 13 2 0 9.58121189173311 0.74328886735253 1.77342154551297
57 13 6 0 9.82121189173311 -0.18671113264747 1.77342154551297
58 14 6 0 3.32015668784268 12.196473314371 7.54434915957972
59 14 2 0 4.28015668784268 12.196473314371 7.54434915957972
60 14 6 0 4.52015668784268 11.266473314371 7.54434915957972
61 15 6 0 5.44958919796161 5.53762300912291 13.0531176715158
62 15 2 0 6.40958919796161 5.53762300912291 13.0531176715158
63 15 6 0 6.64958919796161 4.60762300912291 13.0531176715158
64 16 6 0 2.93616300143302 5.09489573462866 2.32935497886501
65 16 2 0 3.89616300143302 5.09489573462866 2.32935497886501
66 16 6 0 4.13616300143302 4.16489573462866 2.32935497886501
67 17 6 0 12.5030037229601 8.37596875423566 9.13282948429696
68 17 2 0 13.4630037229601 8.37596875423566 9.13282948429696
69 17 6 0 13.7030037229601 7.44596875423565 9.13282948429696
70 18 6 0 4.54233322452754 3.55969082837924 9.54878564807586
71 18 2 0 5.50233322452754 3.55969082837924 9.54878564807586
72 18 6 0 5.74233322452754 2.62969082837924 9.54878564807586
73 19 6 0 3.97340014387853 2.58624303894117 0.49236147897318
74 19 2 0 4.93340014387853 2.58624303894117 0.49236147897318
75 19 6 0 5.17340014387853 1.65624303894117 0.49236147897318
76 20 6 0 7.13311602288857 3.10700714861974 13.3881926292088
77 20 2 0 8.09311602288857 3.10700714861974 13.3881926292088
78 20 6 0 8.33311602288857 2.17700714861974 13.3881926292088
79 21 6 0 10.1436787219439 15.2995773304161 12.649273033021
80 21 2 0 11.1036787219439 15.2995773304161 12.649273033021
81 21 6 0 11.3436787219439 14.3695773304161 12.649273033021
82 22 6 0 6.77004740850069 5.6477191151958 10.8712152892258
83 22 2 0 7.73004740850069 5.6477191151958 10.8712152892258
84 22 6 0 7.97004740850069 4.7177191151958 10.8712152892258
85 23 6 0 13.4317180844676 5.85481796687469 2.87179240258411
86 23 2 0 14.3917180844676 5.85481796687469 2.87179240258411
87 23 6 0 14.6317180844676 4.92481796687469 2.87179240258411
88 24 6 0 8.72795546703972 8.95136831602082 9.74438398028724
89 24 2 0 9.68795546703972 8.95136831602082 9.74438398028724
90 24 6 0 9.92795546703972 8.02136831602082 9.74438398028724
91 25 6 0 3.83690876115114 9.71323236281984 13.1604365841486
92 25 2 0 4.79690876115114 9.71323236281984 13.1604365841486
93 25 6 0 5.03690876115114 8.78323236281984 13.1604365841486
94 26 6 0 13.939087829059 13.1952342104074 12.533107342897
95 26 2 0 14.899087829059 13.1952342104074 12.533107342897
96 26 6 0 15.139087829059 12.2652342104074 12.533107342897
97 27 6 0 8.25530575166456 11.9139083502255 7.14420361560769
98 27 2 0 9.21530575166456 11.9139083502255 7.14420361560769
99 27 6 0 9.45530575166456 10.9839083502255 7.14420361560769
100 28 6 0 5.89087447078899 4.46013507357798 4.91155380383134
101 28 2 0 6.85087447078899 4.46013507357798 4.91155380383134
102 28 6 0 7.09087447078899 3.53013507357799 4.91155380383134
103 29 6 0 13.0788957390189 12.1383437436912 4.79533025762066
104 29 2 0 14.0388957390189 12.1383437436912 4.79533025762066
105 29 6 0 14.2788957390189 11.2083437436912 4.79533025762066
106 30 6 0 10.7392471404467 15.0580139054824 8.53371309000067
107 30 2 0 11.6992471404467 15.0580139054824 8.53371309000067
108 30 6 0 11.9392471404467 14.1280139054824 8.53371309000067
109 31 6 0 8.64669730930589 4.33775098569691 12.4245172657538
110 31 2 0 9.60669730930589 4.33775098569691 12.4245172657538
111 31 6 0 9.84669730930589 3.40775098569691 12.4245172657538
112 32 6 0 1.07126699455082 10.4907047147304 11.8170821433887
113 32 2 0 2.03126699455082 10.4907047147304 11.8170821433887
114 32 6 0 2.27126699455082 9.56070471473038 11.8170821433887
115 33 6 0 7.86461777796038 13.2250429996662 13.6536796961445
116 33 2 0 8.82461777796038 13.2250429996662 13.6536796961445
117 33 6 0 9.06461777796038 12.2950429996662 13.6536796961445
118 34 6 0 5.29852893596515 14.1005768083874 6.98587903054431
119 34 2 0 6.25852893596515 14.1005768083874 6.98587903054431
120 34 6 0 6.49852893596515 13.1705768083874 6.98587903054431
121 35 6 0 -0.195912839407101 5.18465258687735 13.8411122455727
122 35 2 0 0.764087160592899 5.18465258687735 13.8411122455727
123 35 6 0 1.0040871605929 4.25465258687735 13.8411122455727
124 36 6 0 12.2984385983739 14.0658843416628 0.733382696053013
125 36 2 0 13.2584385983739 14.0658843416628 0.733382696053013
126 36 6 0 13.4984385983739 13.1358843416628 0.733382696053013
127 37 6 0 4.36172218571417 13.6967104467936 5.70063724648207
128 37 2 0 5.32172218571417 13.6967104467936 5.70063724648207
129 37 6 0 5.56172218571417 12.7667104467936 5.70063724648207
130 38 6 0 6.10581177097745 12.1844518212043 0.73589246137999
131 38 2 0 7.06581177097745 12.1844518212043 0.73589246137999
132 38 6 0 7.30581177097745 11.2544518212043 0.73589246137999
133 39 6 0 4.04403584238142 8.00083011546172 7.12389018852264
134 39 2 0 5.00403584238142 8.00083011546172 7.12389018852264
135 39 6 0 5.24403584238142 7.07083011546172 7.12389018852264
136 40 6 0 14.099664505776 5.6801553971041 13.1193852669094
137 40 2 0 15.059664505776 5.6801553971041 13.1193852669094
138 40 6 0 15.299664505776 4.7501553971041 13.1193852669094
139 41 6 0 11.3952675524354 6.12595206167549 6.46047048037872
140 41 2 0 12.3552675524354 6.12595206167549 6.46047048037872
141 41 6 0 12.5952675524354 5.19595206167549 6.46047048037872
142 42 6 0 2.16427688064985 6.13584872143343 0.292213711654767
143 42 2 0 3.12427688064985 6.13584872143343 0.292213711654767
144 42 6 0 3.36427688064985 5.20584872143343 0.292213711654767
145 43 6 0 12.0650514301099 10.801922753863 2.91566017898731
146 43 2 0 13.0250514301099 10.801922753863 2.91566017898731
147 43 6 0 13.2650514301099 9.87192275386304 2.91566017898731
148 44 6 0 13.6932549699862 13.1986873763986 1.07382866903208
149 44 2 0 14.6532549699862 13.1986873763986 1.07382866903208
150 44 6 0 14.8932549699862 12.2686873763986 1.07382866903208
151 45 6 0 4.76687345464714 0.83446169545874 14.7056453896221
152 45 2 0 5.72687345464714 0.83446169545874 14.7056453896221
153 45 6 0 5.96687345464714 -0.0955383045412601 14.7056453896221
154 46 6 0 4.73724167022854 8.81250430987217 3.35056732990779
155 46 2 0 5.69724167022854 8.81250430987217 3.35056732990779
156 46 6 0 5.93724167022854 7.88250430987217 3.35056732990779
157 47 6 0 8.07006592207588 7.03491580247879 13.7683882238343
158 47 2 0 9.03006592207588 7.03491580247879 13.7683882238343
159 47 6 0 9.27006592207588 6.10491580247879 13.7683882238343
160 48 6 0 11.4696039834246 11.2657522728574 7.51264088088647
161 48 2 0 12.4296039834246 11.2657522728574 7.51264088088647
162 48 6 0 12.6696039834246 10.3357522728574 7.51264088088647
163 49 6 0 1.40894465890713 2.34677364741452 8.11735273338854
164 49 2 0 2.36894465890713 2.34677364741452 8.11735273338854
165 49 6 0 2.60894465890713 1.41677364741452 8.11735273338854
166 50 6 0 5.36296910184436 3.93781015574001 3.03395961876959
167 50 2 0 6.32296910184436 3.93781015574001 3.03395961876959
168 50 6 0 6.56296910184436 3.00781015574001 3.03395961876959
169 51 6 0 9.5626832968276 7.08516913972795 11.8474581115879
170 51 2 0 10.5226832968276 7.08516913972795 11.8474581115879
171 51 6 0 10.7626832968276 6.15516913972795 11.8474581115879
172 52 6 0 12.7725072756596 4.12056076614186 11.5286407526582
173 52 2 0 13.7325072756596 4.12056076614186 11.5286407526582
174 52 6 0 13.9725072756596 3.19056076614186 11.5286407526582
175 53 6 0 7.45882937612012 11.3163464217819 2.40169711410999
176 53 2 0 8.41882937612012 11.3163464217819 2.40169711410999
177 53 6 0 8.65882937612012 10.3863464217819 2.40169711410999
178 54 6 0 10.7195933935884 1.43656849785708 2.95769964926876
179 54 2 0 11.6795933935884 1.43656849785708 2.95769964926876
180 54 6 0 11.9195933935884 0.506568497857079 2.95769964926876
181 55 6 0 1.63397256561555 15.0195416090451 0.852503083879128
182 55 2 0 2.59397256561555 15.0195416090451 0.852503083879128
183 55 6 0 2.83397256561555 14.0895416090451 0.852503083879128
184 56 6 0 9.02366435548291 7.96725469449535 6.84727227548137
185 56 2 0 9.98366435548291 7.96725469449535 6.84727227548137
186 56 6 0 10.2236643554829 7.03725469449535 6.84727227548137
187 57 6 0 -0.36548705611378 8.21429385961033 4.88040750031359
188 57 2 0 0.59451294388622 8.21429385961033 4.88040750031359
189 57 6 0 0.83451294388622 7.28429385961033 4.88040750031359
190 58 6 0 -0.309075607946143 12.0622431281395 1.52565600466914
191 58 2 0 0.650924392053857 12.0622431281395 1.52565600466914
192 58 6 0 0.890924392053857 11.1322431281395 1.52565600466914
193 59 6 0 7.49268159896135 1.00472013390623 10.9643681359012
194 59 2 0 8.45268159896135 1.00472013390623 10.9643681359012
195 59 6 0 8.69268159896135 0.0747201339062303 10.9643681359012
196 60 6 0 11.0998503402527 3.19603457272984 12.5357547949534
197 60 2 0 12.0598503402527 3.19603457272984 12.5357547949534
198 60 6 0 12.2998503402527 2.26603457272984 12.5357547949534
199 61 6 0 13.953920434434 9.03451260802336 13.1409533252008
200 61 2 0 14.913920434434 9.03451260802336 13.1409533252008
201 61 6 0 15.153920434434 8.10451260802336 13.1409533252008
202 62 6 0 10.598409856176 5.15688591212034 12.7240292436909
203 62 2 0 11.558409856176 5.15688591212034 12.7240292436909
204 62 6 0 11.798409856176 4.22688591212034 12.7240292436909
205 63 6 0 12.5694582382869 7.97582016134635 0.978773762471974
206 63 2 0 13.5294582382869 7.97582016134635 0.978773762471974
207 63 6 0 13.7694582382869 7.04582016134635 0.978773762471974
208 64 6 0 4.84312026106752 10.9810442376789 9.50221184408292
209 64 2 0 5.80312026106752 10.9810442376789 9.50221184408292
210 64 6 0 6.04312026106752 10.0510442376789 9.50221184408292
211 65 6 0 8.06659405047074 13.7045462969132 6.27425863640383
212 65 2 0 9.02659405047074 13.7045462969132 6.27425863640383
213 65 6 0 9.26659405047074 12.7745462969132 6.27425863640383
214 66 6 0 -0.620233444059268 14.9853234253265 14.4565283681732
215 66 2 0 0.339766555940732 14.9853234253265 14.4565283681732
216 66 6 0 0.579766555940732 14.0553234253265 14.4565283681732
217 67 6 0 13.582839115262 3.22036668233573 0.0590817269403487
218 67 2 0 14.542839115262 3.22036668233573 0.0590817269403487
219 67 6 0 14.782839115262 2.29036668233573 0.0590817269403487
220 68 6 0 1.29301037915982 7.12528361863457 13.6932022031397
221 68 2 0 2.25301037915982 7.12528361863457 13.6932022031397
222 68 6 0 2.49301037915982 6.19528361863457 13.6932022031397
223 69 6 0 0.574050553115085 4.81788474176079 2.95450276695192
224 69 2 0 1.53405055311508 4.81788474176079 2.95450276695192
225 69 6 0 1.77405055311508 3.88788474176079 2.95450276695192
226 70 6 0 0.367694903835654 13.9859705957957 6.51677058194764
227 70 2 0 1.32769490383565 13.9859705957957 6.51677058194764
228 70 6 0 1.56769490383565 13.0559705957957 6.51677058194764
229 71 6 0 6.57826354072429 14.174959954517 5.54569943225943
230 71 2 0 7.53826354072429 14.174959954517 5.54569943225943
231 71 6 0 7.77826354072429 13.244959954517 5.54569943225943
232 72 6 0 8.51750461195595 9.20370207441971 0.123805002076551
233 72 2 0 9.47750461195596 9.20370207441971 0.123805002076551
234 72 6 0 9.71750461195596 8.27370207441971 0.123805002076551
235 73 6 0 0.179571011541411 10.5067221789528 7.09552181884646
236 73 2 0 1.13957101154141 10.5067221789528 7.09552181884646
237 73 6 0 1.37957101154141 9.57672217895277 7.09552181884646
238 74 6 0 2.98771784917451 12.9339089434966 0.22391508333385
239 74 2 0 3.94771784917451 12.9339089434966 0.22391508333385
240 74 6 0 4.18771784917451 12.0039089434966 0.22391508333385
241 75 6 0 13.8887571966927 8.22016009869054 1.90514031797647
242 75 2 0 14.8487571966928 8.22016009869054 1.90514031797647
243 75 6 0 15.0887571966928 7.29016009869054 1.90514031797647
244 76 6 0 8.40052027881145 4.93160272058099 12.1233861800283
245 76 2 0 9.36052027881145 4.93160272058099 12.1233861800283
246 76 6 0 9.60052027881146 4.00160272058099 12.1233861800283
247 77 6 0 9.94572834388353 6.67364629026502 10.8566797315143
248 77 2 0 10.9057283438835 6.67364629026502 10.8566797315143
249 77 6 0 11.1457283438835 5.74364629026502 10.8566797315143
250 78 6 0 3.28807752739638 15.1791012151539 14.1184318845626
251 78 2 0 4.24807752739638 15.1791012151539 14.1184318845626
252 78 6 0 4.48807752739638 14.2491012151539 14.1184318845626
253 79 6 0 9.113107679151 14.6001637533214 5.63849980942905
254 79 2 0 10.073107679151 14.6001637533214 5.63849980942905
255 79 6 0 10.313107679151 13.6701637533214 5.63849980942905
256 80 6 0 10.9181505061872 1.58358324476518 6.23662671656348
257 80 2 0 11.8781505061872 1.58358324476518 6.23662671656348
258 80 6 0 12.1181505061872 0.653583244765177 6.23662671656348
259 81 6 0 14.0967683277279 13.2871878686734 2.10199885885231
260 81 2 0 15.0567683277279 13.2871878686734 2.10199885885231
261 81 6 0 15.2967683277279 12.3571878686734 2.10199885885231
262 82 6 0 0.827232602024451 2.60490371188149 2.71292848745361
263 82 2 0 1.78723260202445 2.60490371188149 2.71292848745361
264 82 6 0 2.02723260202445 1.67490371188149 2.71292848745361
265 83 6 0 12.8849395438749 12.3631968213618 14.1422951908316
266 83 2 0 13.8449395438749 12.3631968213618 14.1422951908316
267 83 6 0 14.0849395438749 11.4331968213618 14.1422951908316
268 84 6 0 9.06487520827912 6.88537389080971 14.2242011229973
269 84 2 0 10.0248752082791 6.88537389080971 14.2242011229973
270 84 6 0 10.2648752082791 5.95537389080971 14.2242011229973
271 85 6 0 5.62988653706387 5.15738175407983 2.17735977144912
272 85 2 0 6.58988653706387 5.15738175407983 2.17735977144912
273 85 6 0 6.82988653706387 4.22738175407983 2.17735977144912
274 86 6 0 7.07929550830275 2.63076089479961 8.02599135437049
275 86 2 0 8.03929550830275 2.63076089479961 8.02599135437049
276 86 6 0 8.27929550830275 1.7007608947996 8.02599135437049
277 87 6 0 12.6971007305849 15.1883597641159 1.06594640761614
278 87 2 0 13.6571007305849 15.1883597641159 1.06594640761614
279 87 6 0 13.8971007305849 14.2583597641159 1.06594640761614
280 88 6 0 8.41421774050221 2.92326441774145 13.6604041198734
281 88 2 0 9.37421774050221 2.92326441774145 13.6604041198734
282 88 6 0 9.61421774050221 1.99326441774145 13.6604041198734
283 89 6 0 2.97603518396616 9.73408375791274 2.32007497223094
284 89 2 0 3.93603518396616 9.73408375791274 2.32007497223094
285 89 6 0 4.17603518396616 8.80408375791274 2.32007497223094
286 90 6 0 5.23173331559636 7.75468310964294 9.19869773439132
287 90 2 0 6.19173331559636 7.75468310964294 9.19869773439132
288 90 6 0 6.43173331559636 6.82468310964294 9.19869773439132
289 91 6 0 0.837619012892246 10.3399691397231 14.3943858635612
290 91 2 0 1.79761901289225 10.3399691397231 14.3943858635612
291 91 6 0 2.03761901289225 9.40996913972311 14.3943858635612
292 92 6 0 5.00882575448602 10.5597282274999 11.7380790458992
293 92 2 0 5.96882575448602 10.5597282274999 11.7380790458992
294 92 6 0 6.20882575448602 9.62972822749987 11.7380790458992
295 93 6 0 1.06809812176041 12.3467550023366 13.6558769596741
296 93 2 0 2.02809812176041 12.3467550023366 13.6558769596741
297 93 6 0 2.26809812176041 11.4167550023366 13.6558769596741
298 94 6 0 9.24755664004013 12.8474355062377 5.120151193114
299 94 2 0 10.2075566400401 12.8474355062377 5.120151193114
300 94 6 0 10.4475566400401 11.9174355062377 5.120151193114
301 95 6 0 5.48292711770162 7.79352473019622 6.04440676281229
302 95 2 0 6.44292711770162 7.79352473019622 6.04440676281229
303 95 6 0 6.68292711770162 6.86352473019622 6.04440676281229
304 96 6 0 3.49433172770776 8.30195522558875 3.90857263701037
305 96 2 0 4.45433172770776 8.30195522558875 3.90857263701037
306 96 6 0 4.69433172770776 7.37195522558875 3.90857263701037
307 97 6 0 3.24149495732971 2.5674820346199 11.6426847176626
308 97 2 0 4.20149495732971 2.5674820346199 11.6426847176626
309 97 6 0 4.44149495732971 1.6374820346199 11.6426847176626
310 98 6 0 9.52903317913413 5.36387970013544 6.74131881329231
311 98 2 0 10.4890331791341 5.36387970013544 6.74131881329231
312 98 6 0 10.7290331791341 4.43387970013544 6.74131881329231
313 99 6 0 6.97116660696454 4.83102968585677 14.5244063611608
314 99 2 0 7.93116660696454 4.83102968585677 14.5244063611608
315 99 6 0 8.17116660696454 3.90102968585677 14.5244063611608
316 100 6 0 3.25756630671211 12.5148604651354 12.5809299806133
317 100 2 0 4.21756630671211 12.5148604651354 12.5809299806133
318 100 6 0 4.45756630671211 11.5848604651354 12.5809299806133
319 101 6 0 7.11542856923305 5.20789395593107 1.34589362656698
320 101 2 0 8.07542856923305 5.20789395593107 1.34589362656698
321 101 6 0 8.31542856923305 4.27789395593107 1.34589362656698
322 102 6 0 -0.197330072550103 3.3563986529503 13.1569291173946
323 102 2 0 0.762669927449897 3.3563986529503 13.1569291173946
324 102 6 0 1.0026699274499 2.4263986529503 13.1569291173946
325 103 6 0 7.42849675283767 11.6957861678116 2.79504332807846
326 103 2 0 8.38849675283767 11.6957861678116 2.79504332807846
327 103 6 0 8.62849675283767 10.7657861678116 2.79504332807846
328 104 6 0 7.05183046331629 11.9903898394573 0.0431526149623096
329 104 2 0 8.01183046331629 11.9903898394573 0.0431526149623096
330 104 6 0 8.25183046331629 11.0603898394573 0.0431526149623096
331 105 6 0 1.75848863946274 4.73658194690011 7.69904326996766
332 105 2 0 2.71848863946274 4.73658194690011 7.69904326996766
333 105 6 0 2.95848863946274 3.80658194690011 7.69904326996766
334 106 6 0 3.52060987425037 1.45636650774628 11.9182104896754
335 106 2 0 4.48060987425037 1.45636650774628 11.9182104896754
336 106 6 0 4.72060987425037 0.526366507746279 11.9182104896754
337 107 6 0 1.46777455156669 9.16806594858877 11.6161751642358
338 107 2 0 2.42777455156669 9.16806594858877 11.6161751642358
339 107 6 0 2.66777455156669 8.23806594858877 11.6161751642358
340 108 6 0 1.94706850379705 11.8070666717272 6.27865417976864
341 108 2 0 2.90706850379705 11.8070666717272 6.27865417976864
342 108 6 0 3.14706850379705 10.8770666717272 6.27865417976864
343 109 6 0 9.55901884750463 2.6222343828436 8.49772419431247
344 109 2 0 10.5190188475046 2.6222343828436 8.49772419431247
345 109 6 0 10.7590188475046 1.6922343828436 8.49772419431247
346 110 6 0 9.09076678843237 5.59325032675639 6.57222045119852
347 110 2 0 10.0507667884324 5.59325032675639 6.57222045119852
348 110 6 0 10.2907667884324 4.66325032675639 6.57222045119852
349 111 6 0 8.64273938510567 12.8999700936861 0.79952752799727
350 111 2 0 9.60273938510567 12.8999700936861 0.79952752799727
351 111 6 0 9.84273938510567 11.9699700936861 0.79952752799727
352 112 6 0 6.85742086658254 5.67012055468745 14.549546650378
353 112 2 0 7.81742086658254 5.67012055468745 14.549546650378
354 112 6 0 8.05742086658254 4.74012055468746 14.549546650378
355 113 6 0 13.9945534108859 12.3181284840126 4.87617914099246
356 113 2 0 14.9545534108859 12.3181284840126 4.87617914099246
357 113 6 0 15.1945534108859 11.3881284840126 4.87617914099246
358 114 6 0 11.8245325020701 8.346108877277 6.50059461593628
359 114 2 0 12.7845325020701 8.346108877277 6.50059461593628
360 114 6 0 13.0245325020701 7.416108877277 6.50059461593628
361 115 6 0 -0.262415983742103 8.93825456657447 5.14884155709296
362 115 2 0 0.697584016257897 8.93825456657447 5.14884155709296
363 115 6 0 0.937584016257897 8.00825456657447 5.14884155709296
364 116 6 0 6.14336529557593 7.75005608255975 8.36667372495867
365 116 2 0 7.10336529557593 7.75005608255975 8.36667372495867
366 116 6 0 7.34336529557593 6.82005608255975 8.36667372495867
367 117 6 0 0.552497673053294 12.0070576660242 3.36324003059417
368 117 2 0 1.51249767305329 12.0070576660242 3.36324003059417
369 117 6 0 1.75249767305329 11.0770576660242 3.36324003059417
370 118 6 0 3.49307414537296 10.7062415829301 4.42845222889446
371 118 2 0 4.45307414537296 10.7062415829301 4.42845222889446
372 118 6 0 4.69307414537296 9.77624158293009 4.42845222889446
373 119 6 0 2.21204419780523 2.17518926173449 5.01460734405555
374 119 2 0 3.17204419780523 2.17518926173449 5.01460734405555
375 119 6 0 3.41204419780523 1.24518926173449 5.01460734405555
376 120 6 0 2.67476456400007 8.72583018191159 5.60364388860762
377 120 2 0 3.63476456400007 8.72583018191159 5.60364388860762
378 120 6 0 3.87476456400007 7.79583018191159 5.60364388860762
379 121 6 0 6.81723311237991 4.59635539254174 12.8477610962
380 121 2 0 7.77723311237991 4.59635539254174 12.8477610962
381 121 6 0 8.01723311237991 3.66635539254174 12.8477610962
382 122 6 0 10.2359344116133 12.9406331087835 0.590372874867171
383 122 2 0 11.1959344116133 12.9406331087835 0.590372874867171
384 122 6 0 11.4359344116133 12.0106331087835 0.590372874867171
385 123 6 0 5.42688782254234 4.56082595436834 6.07162600150332
386 123 2 0 6.38688782254234 4.56082595436834 6.07162600150332
387 123 6 0 6.62688782254234 3.63082595436834 6.07162600150332
388 124 6 0 1.02174082581885 1.76271233515814 14.6021906670649
389 124 2 0 1.98174082581885 1.76271233515814 14.6021906670649
390 124 6 0 2.22174082581885 0.832712335158139 14.6021906670649
391 125 6 0 11.3021249980386 11.4989488366432 13.7671170209069
392 125 2 0 12.2621249980386 11.4989488366432 13.7671170209069
393 125 6 0 12.5021249980386 10.5689488366432 13.7671170209069
394 126 6 0 11.7306266985554 2.63833102461882 4.15656213532202
395 126 2 0 12.6906266985554 2.63833102461882 4.15656213532202
396 126 6 0 12.9306266985554 1.70833102461882 4.15656213532202
397 127 6 0 9.99742082596756 2.30226028984413 11.8303208251018
398 127 2 0 10.9574208259676 2.30226028984413 11.8303208251018
399 127 6 0 11.1974208259676 1.37226028984413 11.8303208251018
400 128 6 0 5.31100397391245 8.97385264904238 9.32878037681803
401 128 2 0 6.27100397391245 8.97385264904238 9.32878037681803
402 128 6 0 6.51100397391245 8.04385264904238 9.32878037681803
403 129 6 0 11.6118401654251 9.49240547995083 0.218161374796182
404 129 2 0 12.5718401654251 9.49240547995083 0.218161374796182
405 129 6 0 12.8118401654251 8.56240547995083 0.218161374796182
406 130 6 0 5.14064828094095 11.1522638149932 1.92224167753011
407 130 2 0 6.10064828094095 11.1522638149932 1.92224167753011
408 130 6 0 6.34064828094095 10.2222638149932 1.92224167753011
409 131 6 0 6.95398284631781 11.9819462559558 14.9284257623367
410 131 2 0 7.91398284631781 11.9819462559558 14.9284257623367
411 131 6 0 8.15398284631781 11.0519462559558 14.9284257623367
412 132 6 0 2.83628144578077 1.74096882267855 10.8933733147569
413 132 2 0 3.79628144578077 1.74096882267855 10.8933733147569
414 132 6 0 4.03628144578077 0.810968822678551 10.8933733147569
415 133 6 0 3.45566606774926 1.92446920479648 5.47429925529286
416 133 2 0 4.41566606774926 1.92446920479648 5.47429925529286
417 133 6 0 4.65566606774926 0.994469204796478 5.47429925529286
418 134 6 0 11.6897884423099 8.31919843139127 3.9842793380376
419 134 2 0 12.6497884423099 8.31919843139127 3.9842793380376
420 134 6 0 12.8897884423099 7.38919843139127 3.9842793380376
421 135 6 0 0.0115661839675159 0.773059148751199 4.65422374662012
422 135 2 0 0.971566183967516 0.773059148751199 4.65422374662012
423 135 6 0 1.21156618396752 -0.156940851248801 4.65422374662012
424 136 6 0 -0.583739664433524 9.5598553392943 14.5117883943021
425 136 2 0 0.376260335566476 9.5598553392943 14.5117883943021
426 136 6 0 0.616260335566476 8.6298553392943 14.5117883943021
427 137 6 0 5.80807349804789 4.70122969517484 3.55924503179267
428 137 2 0 6.76807349804789 4.70122969517484 3.55924503179267
429 137 6 0 7.00807349804789 3.77122969517484 3.55924503179267
430 138 6 0 7.64002400494181 3.83865606197156 8.56715494534001
431 138 2 0 8.60002400494181 3.83865606197156 8.56715494534001
432 138 6 0 8.84002400494181 2.90865606197156 8.56715494534001
433 139 6 0 6.91696717796847 5.11710017844103 4.36296939966269
434 139 2 0 7.87696717796847 5.11710017844103 4.36296939966269
435 139 6 0 8.11696717796847 4.18710017844103 4.36296939966269
436 140 6 0 7.87191942494363 3.79096875706688 0.192070099292323
437 140 2 0 8.83191942494363 3.79096875706688 0.192070099292323
438 140 6 0 9.07191942494363 2.86096875706688 0.192070099292323
439 141 6 0 6.73001857867464 11.1575733210798 7.25546927307732
440 141 2 0 7.69001857867464 11.1575733210798 7.25546927307732
441 141 6 0 7.93001857867464 10.2275733210798 7.25546927307732
442 142 6 0 0.381289931684732 6.43037621205673 5.98631376866251
443 142 2 0 1.34128993168473 6.43037621205673 5.98631376866251
444 142 6 0 1.58128993168473 5.50037621205673 5.98631376866251
445 143 6 0 7.03068737799302 1.73792799742892 10.8485954767093
446 143 2 0 7.99068737799302 1.73792799742892 10.8485954767093
447 143 6 0 8.23068737799302 0.807927997428924 10.8485954767093
448 144 6 0 2.45783289472573 3.03681365488097 0.875003433320671
449 144 2 0 3.41783289472573 3.03681365488097 0.875003433320671
450 144 6 0 3.65783289472573 2.10681365488097 0.875003433320671
451 145 6 0 10.9313246821705 0.614737151600421 1.65671166731045
452 145 2 0 11.8913246821705 0.614737151600421 1.65671166731045
453 145 6 0 12.1313246821705 -0.31526284839958 1.65671166731045
454 146 6 0 7.88510179423727 3.63315309322439 11.817365573952
455 146 2 0 8.84510179423727 3.63315309322439 11.817365573952
456 146 6 0 9.08510179423727 2.70315309322439 11.817365573952
457 147 6 0 5.23907214679755 9.7581523684226 9.6216313156765
458 147 2 0 6.19907214679755 9.7581523684226 9.6216313156765
459 147 6 0 6.43907214679755 8.8281523684226 9.6216313156765
460 148 6 0 10.9523447141703 12.0779570626933 13.8483291550074
461 148 2 0 11.9123447141703 12.0779570626933 13.8483291550074
462 148 6 0 12.1523447141703 11.1479570626933 13.8483291550074
463 149 6 0 4.17273046609014 9.44661349099129 0.344199658138677
464 149 2 0 5.13273046609014 9.44661349099129 0.344199658138677
465 149 6 0 5.37273046609014 8.5166134909913 0.344199658138677
466 150 6 0 11.3616808543168 11.0963574533258 1.64540259051137
467 150 2 0 12.3216808543168 11.0963574533258 1.64540259051137
468 150 6 0 12.5616808543168 10.1663574533258 1.64540259051137
469 151 6 0 13.7266135650873 13.0744425618928 8.97969332523644
470 151 2 0 14.6866135650873 13.0744425618928 8.97969332523644
471 151 6 0 14.9266135650873 12.1444425618928 8.97969332523644
472 152 6 0 10.7539149541128 10.1343157088291 5.63180630793795
473 152 2 0 11.7139149541128 10.1343157088291 5.63180630793795
474 152 6 0 11.9539149541128 9.20431570882909 5.63180630793795