LAMMPS (29 Sep 2021 - Update 1)
Reading data file ...
  triclinic box = (0.0000000 0.0000000 0.0000000) to (15.000000 15.000000 15.000000) with tilt (0.0000000 0.0000000 0.0000000)
  2 by 4 by 4 MPI processor grid
  reading atoms ...
  1521 atoms
  scanning bonds ...
  3 = max bonds/atom
  scanning angles ...
  6 = max angles/atom
  scanning dihedrals ...
  9 = max dihedrals/atom
  scanning impropers ...
  1 = max impropers/atom
  reading bonds ...
  1020 bonds
  reading angles ...
  535 angles
  reading dihedrals ...
  41 dihedrals
  reading impropers ...
  1 impropers
Finding 1-2 1-3 1-4 neighbors ...
  special bond factors lj:    0        0        1       
  special bond factors coul:  0        0        1       
     4 = max # of 1-2 neighbors
     6 = max # of 1-3 neighbors
    10 = max # of special neighbors
  special bonds CPU = 0.002 seconds
  read_data CPU = 0.022 seconds
WARNING: Using 'neigh_modify every 1 delay 0 check yes' setting during minimization (../min.cpp:188)
Neighbor list info ...
  update every 1 steps, delay 0 steps, check yes
  max neighbors/atom: 10000, page size: 100000
  master list distance cutoff = 13
  ghost atom cutoff = 13
  binsize = 6.5, bins = 3 3 3
  3 neighbor lists, perpetual/occasional/extra = 3 0 0
  (1) pair hbond/dreiding/lj, perpetual, skip from (3)
      attributes: full, newton on
      pair build: skip
      stencil: none
      bin: none
  (2) pair lj/cut, perpetual, half/full from (3)
      attributes: half, newton on
      pair build: halffull/newton
      stencil: none
      bin: none
  (3) neighbor class addition, perpetual
      attributes: full, newton on
      pair build: full/bin
      stencil: full/bin/3d
      bin: standard
Setting up cg style minimization ...
  Unit style    : real
  Current step  : 0
WARNING: Energy due to 1 extra global DOFs will be included in minimizer energies
Per MPI rank memory allocation (min/avg/max) = 14.33 | 14.70 | 15.40 Mbytes
Step Temp E_pair E_mol TotEng Press Volume 
       0            0 9.6612522e+15    220.43049 9.6612522e+15 7.8513393e+17         3375 
    5648            0   -1037.1899    66.616902     -970.573    118.81167    35521.095 
Loop time of 5.77515 on 32 procs for 5648 steps with 1521 atoms

99.9% CPU use with 32 MPI tasks x no OpenMP threads

Minimization stats:
  Stopping criterion = energy tolerance
  Energy initial, next-to-last, final = 
    9.66125221524198e+15  -970.010269289211  -970.104184637926
  Force two-norm initial, final = 8.0767072e+17 111.99813
  Force max component initial, final = 3.9814459e+17 83.547661
  Final line search alpha, max atom move = 1.5387095e-05 0.0012855558
  Iterations, force evaluations = 5648 5649

MPI task timing breakdown:
Section |  min time  |  avg time  |  max time  |%varavg| %total
---------------------------------------------------------------
Pair    | 1.5007     | 2.7678     | 4.974      |  47.1 | 47.93
Bond    | 0.0076806  | 0.012225   | 0.028987   |   3.6 |  0.21
Neigh   | 0.11007    | 0.11059    | 0.11095    |   0.1 |  1.92
Comm    | 0.2939     | 2.5011     | 3.7548     |  49.6 | 43.31
Output  | 0          | 0          | 0          |   0.0 |  0.00
Modify  | 0          | 0          | 0          |   0.0 |  0.00
Other   |            | 0.3835     |            |       |  6.64

Nlocal:        47.5312 ave          75 max          27 min
Histogram: 3 1 5 5 8 2 2 5 0 1
Nghost:        2057.94 ave        2120 max        1995 min
Histogram: 2 3 3 6 2 2 4 5 3 2
Neighs:        5363.00 ave       10088 max        2438 min
Histogram: 3 3 5 7 8 1 2 0 2 1

Total # of neighbors = 171616
Ave neighs/atom = 112.83103
Ave special neighs/atom = 2.0447074
Neighbor list builds = 94
Dangerous builds = 0
1500 atoms in group WAT
21 atoms in group MOL
Neighbor list info ...
  update every 2 steps, delay 10 steps, check yes
  max neighbors/atom: 10000, page size: 100000
  master list distance cutoff = 13
  ghost atom cutoff = 13
  binsize = 6.5, bins = 6 6 6
  4 neighbor lists, perpetual/occasional/extra = 3 1 0
  (1) pair hbond/dreiding/lj, perpetual, skip from (4)
      attributes: full, newton on
      pair build: skip
      stencil: none
      bin: none
  (2) pair lj/cut, perpetual, half/full from (4)
      attributes: half, newton on
      pair build: halffull/newton
      stencil: none
      bin: none
  (3) compute group/group, occasional, copy from (2)
      attributes: half, newton on
      pair build: copy
      stencil: none
      bin: none
  (4) neighbor class addition, perpetual
      attributes: full, newton on
      pair build: full/bin
      stencil: full/bin/3d
      bin: standard
Setting up Verlet run ...
  Unit style    : real
  Current step  : 5648
  Time step     : 1
Per MPI rank memory allocation (min/avg/max) = 13.18 | 13.24 | 13.72 Mbytes
Step Temp E_pair E_mol TotEng Press Volume 
    5648          300   -1037.1899    66.616902    388.67638    1868.0366    35521.095 
    5700    289.14422   -1067.4572    162.33497    404.94146    818.09793    35521.095 
    5800    303.45565   -1149.2001    192.98219    418.68845   -642.31348    35521.095 
    5900    298.33971   -1137.3701    233.84189    448.19863   -477.91693    35521.095 
    6000    290.78617   -1150.5257    207.80385    374.78119   -418.21425    35521.095 
    6100    296.89843   -1130.3963    202.99163    417.79206   -128.00225    35521.095 
    6200    289.52901   -1132.1421    209.51633    389.18129    93.646681    35521.095 
    6300    293.35865   -1125.4794    221.74883    425.42796    478.61601    35521.095 
    6400    294.37211   -1102.0871     223.4126    455.07593    335.02668    35521.095 
    6500    314.82823    -1082.212    214.24715    558.46873    948.85142    35521.095 
    6600    299.06217   -1141.3836    205.84948    419.46614    801.21872    35521.095 
    6700    305.61865   -1125.7586    225.47611    484.42408    796.60347    35521.095 
    6800     305.0002   -1113.3665    224.24564    492.78358    803.95474    35521.095 
    6900     294.8287   -1178.1663    222.42064    380.07346    458.88017    35521.095 
    7000    299.22689   -1120.2997    219.82153    455.26837    152.98564    35521.095 
    7100    304.95564   -1123.4902     224.7538    482.96616    432.25183    35521.095 
    7200    290.76169   -1129.4909    212.76001    400.66126    393.30302    35521.095 
    7300    301.21929    -1110.155    216.11706    470.73585    542.11714    35521.095 
    7400    305.72796   -1113.9791    220.56529    491.78798    992.08018    35521.095 
    7500     300.1365   -1108.9526    231.09394    482.00916    378.58089    35521.095 
    7600    299.15387   -1155.5887    220.67806    420.50509    260.73178    35521.095 
    7700      301.866   -1179.1006    209.37002    397.97332    362.16675    35521.095 
    7800    307.43692    -1165.476    242.01278     469.4816    372.92886    35521.095 
    7900    300.81335   -1145.5387    243.34754     460.7434    156.09884    35521.095 
    8000    300.54419   -1153.5177    229.27862    437.47599   -127.33498    35521.095 
    8100    286.31526   -1171.2895    250.02463    375.98128    528.12551    35521.095 
    8200    296.54554   -1172.0646    245.99915    417.53238    170.32762    35521.095 
    8300    298.15899   -1174.8637    225.28895    401.33333    172.43639    35521.095 
    8400    308.00117   -1175.3865    219.59772    439.71252    121.86922    35521.095 
    8500    305.61192    -1174.843    251.42169     461.2548   -45.993364    35521.095 
    8600    299.74692   -1175.9163    245.36514    427.55159   -363.11568    35521.095 
    8700    292.59109   -1159.2044     233.9378     400.4143    548.16254    35521.095 
    8800     297.7597    -1204.057    236.03044    381.07247    358.82542    35521.095 
    8900    287.64717   -1175.2353    241.58907    369.63454    328.64936    35521.095 
    9000    305.38189   -1187.0828    249.57638    446.12736     635.7921    35521.095 
    9100    293.23519   -1144.0581    235.88984    420.43092    339.59088    35521.095 
    9200    305.05957   -1165.0002    242.15459    459.32788    628.30542    35521.095 
    9300    298.79104   -1171.5627    248.15877     430.3678    723.42532    35521.095 
    9400    309.93659   -1152.6105     258.3647    510.02455    212.62495    35521.095 
    9500    300.39357   -1144.0832      251.104    468.05339    470.41351    35521.095 
    9600    294.04043   -1174.7761    244.25355    401.72507    145.01898    35521.095 
    9700    301.13097   -1166.7983    251.00818    448.58352    268.82905    35521.095 
    9800    304.66957   -1177.3345    252.63737    455.70931    345.32904    35521.095 
    9900    296.83684   -1189.7974    258.04427    413.16453    815.37751    35521.095 
   10000    291.71659   -1178.3131    259.41578    402.82131     179.8035    35521.095 
   10100    294.64554   -1182.2027    248.77608    401.56265   -43.275199    35521.095 
   10200    290.14375   -1187.3101    261.71282    388.99512   -4.7528287    35521.095 
   10300    299.50958   -1189.4005    265.30284    432.92967    427.12137    35521.095 
   10400    299.20563   -1181.0311    265.06668    439.68584    336.56026    35521.095 
   10500    294.83856   -1160.8239    266.04416    441.08401    304.34802    35521.095 
   10600    309.76139    -1189.159    256.16155    470.47919     64.16758    35521.095 
   10700    303.06067   -1178.7401    255.24096     449.6176    92.419214    35521.095 
   10800    308.35574   -1225.4045    262.66246    434.36574   -16.005987    35521.095 
   10900    290.36192   -1177.6833    262.98861    400.88617    113.54897    35521.095 
   11000    304.86449   -1233.4715    267.89797    415.71608    -351.4216    35521.095 
   11100    302.56293   -1203.8886    254.69696    421.66998    182.07118    35521.095 
   11200    310.25363   -1197.4361    272.89522    481.16597   -10.400918    35521.095 
   11300    301.45457   -1175.4252     265.1863     455.6009    467.82501    35521.095 
   11400    295.35907   -1128.5681    282.50746    492.16151    559.05576    35521.095 
   11500    298.57146   -1173.4782     269.8813    449.17998    297.35986    35521.095 
   11600    300.62854   -1179.5934    262.50023    445.00397    482.00298    35521.095 
   11700     304.0058   -1150.3487    264.77533    491.82564    482.46839    35521.095 
   11800    310.75329   -1154.4498    273.43988    526.96077    425.07081    35521.095 
   11900    291.65336   -1159.8944    271.45968    432.99745    598.37721    35521.095 
   12000    299.71586   -1163.1289    284.41937    479.25242    546.07443    35521.095 
   12100    302.39703   -1200.6598    267.19368    436.64382    576.23129    35521.095 
   12200    303.74248   -1163.3629    294.76162    507.60469    638.15259    35521.095 
   12300    304.03164   -1187.7765    262.68552    452.42508    128.40584    35521.095 
   12400    299.18501   -1220.9347    269.70652    404.32866    98.317058    35521.095 
   12500    314.57338   -1208.5228    284.96515    501.72133    464.34399    35521.095 
   12600    301.15285   -1208.5521    283.74155    439.66219    465.59635    35521.095 
   12700    299.63255   -1213.7057    293.58027    437.45906    518.44661    35521.095 
   12800    302.07845   -1208.8874    273.94968    433.72872    217.77419    35521.095 
   12900    302.53946   -1218.8371     276.7952    428.71337    645.83619    35521.095 
   13000    287.67092   -1202.2017    274.15472    375.34142     340.3867    35521.095 
   13100    294.99513   -1186.2817    267.39033     417.6818    812.07075    35521.095 
   13200    312.35083   -1183.4258    280.15212    511.93526    641.05057    35521.095 
   13300    314.17786   -1202.2266    274.48017    495.74044    699.76932    35521.095 
   13400       293.38   -1174.3462    275.18468    430.09378    679.34965    35521.095 
   13500    305.39185   -1204.6734    296.64824    475.65379    180.06283    35521.095 
   13600    305.77783   -1196.5667    288.82399    477.68507    374.88019    35521.095 
   13700    297.53643   -1189.6422    283.59656    442.04172    196.07814    35521.095 
   13800    297.70822    -1173.585    294.28391    469.56467    335.80588    35521.095 
   13900    309.01528   -1150.3384    278.91737    528.67503    158.85212    35521.095 
   14000    299.21388   -1152.0227    297.93311    501.59805   -218.15393    35521.095 
   14100    296.16658    -1150.492    281.34846    472.73728    310.03777    35521.095 
   14200     300.4139   -1180.4144    284.83423     465.5445   -67.975279    35521.095 
   14300    299.20411   -1135.9857    295.23034    514.88793   -471.27319    35521.095 
   14400     295.9096   -1214.5374    298.46384    424.64292   -398.41769    35521.095 
   14500    299.54589   -1192.1349    301.45064    466.50766      244.251    35521.095 
   14600    288.20671   -1185.3521    303.80043    424.26428    58.573153    35521.095 
   14700    295.81751   -1221.4464    310.78122    429.63408    471.71107    35521.095 
   14800     296.3923   -1207.7112    296.62138    431.81373    253.16571    35521.095 
   14900    298.07709   -1165.4854    293.59272    478.64428     450.2037    35521.095 
   15000    295.41272   -1167.4851    288.08705    459.06713    541.95244    35521.095 
   15100    296.71177   -1129.3785    307.22922    522.20167    440.64274    35521.095 
   15200    317.23295   -1201.6074    289.30203    525.02364     10.11418    35521.095 
   15300      299.737   -1202.0456    283.60636    439.61855    61.282225    35521.095 
   15400    299.90031   -1218.3554    287.95157    428.39391    394.71795    35521.095 
   15500    302.40411   -1216.2849    299.08688    452.94398    298.45601    35521.095 
   15600    301.80908    -1196.433    294.49089    465.50394    329.30767    35521.095 
   15700    307.49976   -1266.2085     290.8341    417.85518    279.63204    35521.095 
   15800     294.9684   -1190.1407    306.68014    452.99153    80.430569    35521.095 
   15900    312.59554   -1186.0628    285.17703    515.43185    558.38415    35521.095 
   16000     298.9548   -1230.3742    309.04746    433.18704    366.53362    35521.095 
   16100    294.50188   -1166.6979    292.69245    460.33289    539.80302    35521.095 
   16200    295.05746   -1243.8087    298.80984    391.85667    439.83573    35521.095 
   16300    300.95583   -1218.9378    286.88442    431.52673    1352.2286    35521.095 
   16400    294.76331   -1188.1018    319.59399      467.015    876.01436    35521.095 
   16500    288.54132    -1223.018      333.628    417.94205    479.04605    35521.095 
   16600    299.29678   -1224.8147    308.45901     439.7075    483.13741    35521.095 
   16700    300.65441   -1216.1704    318.04404    464.08801     574.8756    35521.095 
   16800    306.88903   -1213.8754    320.28468    496.87167    871.82686    35521.095 
   16900    306.54953   -1210.9164    317.17354    495.18136    392.79361    35521.095 
   17000     295.7486   -1227.7873    311.77952    423.97925     636.2712    35521.095 
   17100    315.99739    -1196.783    323.30889    558.25677    36.486476    35521.095 
   17200    285.85203   -1238.8971    314.36978    370.61998   -611.09575    35521.095 
   17300    301.06531   -1242.7511     313.3814    434.70647    302.24461    35521.095 
   17400    292.02038   -1239.3466    316.20322    399.95166    334.55606    35521.095 
   17500    293.34982   -1242.8809    314.12414    400.36176    66.118075    35521.095 
   17600    310.56163   -1239.4737    297.95152    465.58014    218.28161    35521.095 
   17700    308.82167   -1196.5848    316.63586    519.26997    255.22367    35521.095 
   17800    289.41367   -1214.7443    330.36455    426.90471    407.21574    35521.095 
   17900    306.20884   -1195.0416    328.78796    521.12699    923.79643    35521.095 
   18000    301.50673   -1192.2006    327.60308    501.47862    220.88521    35521.095 
   18100    306.12992   -1169.4047    355.66612     573.2844   -12.545184    35521.095 
   18200     293.3574   -1207.4977     343.0561    464.71128   -332.78641    35521.095 
   18300    300.07311     -1215.44    322.83164     466.9723    398.66193    35521.095 
   18400    311.51962   -1261.5759    321.71201    471.57897    30.914125    35521.095 
   18500    299.00217   -1205.6603    328.17715    477.24527   -471.05575    35521.095 
   18600     290.9749   -1192.7182    335.01944    460.65939    17.642195    35521.095 
   18700    298.04637    -1213.956    327.93991     464.3817    197.59558    35521.095 
   18800    309.38935   -1245.3347    327.35331    483.80951    358.65615    35521.095 
   18900    296.46839   -1233.8395    324.80468    434.21343   -165.61934    35521.095 
   19000    308.27794   -1191.2051    333.01902    538.56932    735.48933    35521.095 
   19100    297.93373   -1248.6474    325.26725    426.50736    392.06332    35521.095 
   19200    296.34776   -1196.5303    335.70872    481.88009    170.72679    35521.095 
   19300    292.92928   -1272.3716    335.27735    390.11894   -20.229223    35521.095 
   19400    311.57047   -1257.7954    344.54827    498.42608   -87.678168    35521.095 
   19500    301.57215   -1219.0869    337.19158    484.47718   -448.38581    35521.095 
   19600    286.04665   -1255.8795    323.95064    364.10028   -564.72943    35521.095 
   19700    298.29734   -1231.3651    355.27536    475.44516   -142.31989    35521.095 
   19800    310.40542   -1235.8281    336.67267    507.23919    495.24286    35521.095 
   19900    296.53148   -1227.2314    326.01599    442.31864    288.34318    35521.095 
   20000    289.95551   -1218.8171    349.93325    444.85565   -145.31854    35521.095 
   20100     290.5068   -1214.7497    325.69969    427.18729    27.910316    35521.095 
   20200    296.17095   -1254.7134    310.89454    398.08175    58.802278    35521.095 
   20300    295.26772   -1215.4558    347.52881     469.8812    94.888618    35521.095 
   20400    299.98589   -1201.8171    359.80725    517.17564   -172.65073    35521.095 
   20500    301.49159   -1223.4496    320.34493    462.90286    119.96178    35521.095 
   20600    306.00438   -1268.6975    342.66198    460.41869   -411.92523    35521.095 
   20700    308.33771   -1181.2162    339.61367    555.42358    52.289129    35521.095 
   20800    293.09954   -1219.6995    318.15987    426.44497   -155.77271    35521.095 
   20900     297.0513   -1232.7495    323.14818    436.28799    376.22024    35521.095 
   21000    296.28889   -1201.4275    339.77198    480.77943    252.55636    35521.095 
   21100    306.76134   -1198.7244    343.50164    534.66115    218.18229    35521.095 
   21200    305.39389   -1203.7273    346.53521    526.49606   -77.724899    35521.095 
   21300    291.78569   -1228.7584    337.41217    430.68555     -263.015    35521.095 
   21400    304.00822   -1251.9135    355.30217    480.79863   -528.60865    35521.095 
   21500     306.0163   -1259.7445    333.08947    459.85316    95.072471    35521.095 
   21600    303.01949   -1221.6962    345.84447    497.07851   -525.61634    35521.095 
   21700    298.28662   -1287.2314    351.13217    415.38718   -7.5462939    35521.095 
   21800     303.2643   -1267.0542    345.77505    452.76025   -246.56977    35521.095 
   21900    299.10039    -1239.315    345.16411    461.02253   -384.89493    35521.095 
   22000    305.18839   -1266.2445    350.94816    467.46077    51.202346    35521.095 
   22100    305.02423   -1277.0996    345.77834    450.69204    543.66725    35521.095 
   22200    290.42586   -1295.5618    332.27708    352.58586    587.76759    35521.095 
   22300    296.25291   -1299.4301    343.44652     386.2884    482.20695    35521.095 
   22400    307.66422   -1254.9087    349.54988    488.61582    362.29687    35521.095 
   22500    300.03174   -1245.4442    370.96188    484.91085    125.13368    35521.095 
   22600      305.893   -1285.6244    346.87419     447.1994    649.87081    35521.095 
   22700    298.95615   -1270.9446    349.55191    433.12719    344.07786    35521.095 
   22800    290.78583   -1233.9301    338.00775    421.57916    58.615917    35521.095 
   22900    294.09526   -1249.9517      353.931    436.47527    230.06195    35521.095 
   23000    300.51236   -1215.2942    354.04732    500.32389    964.60959    35521.095 
   23100    300.22095   -1259.1228    345.61692    446.74461    255.81573    35521.095 
   23200    296.33727   -1241.6683    332.44597     433.4318    508.14442    35521.095 
   23300    308.25631   -1233.4967    356.82211     519.9827    603.26078    35521.095 
   23400    290.13708   -1186.2039    369.87338    498.23168    147.74997    35521.095 
   23500    293.90286   -1220.1072    350.34604    461.86307   -371.99778    35521.095 
   23600    296.78005   -1266.8108    361.51378    439.36326    86.864678    35521.095 
   23700    305.27724   -1272.5975     355.9408    466.50297    235.01045    35521.095 
   23800    304.39413   -1249.7909    364.67763    494.04519   -280.93098    35521.095 
   23900    302.43374   -1319.4448    339.95878    390.79022    156.98507    35521.095 
   24000    296.85541    -1310.003    343.33541    378.33421   -126.53323    35521.095 
   24100     306.0127   -1311.1956     358.9536    434.24989   -284.45002    35521.095 
   24200    309.48948    -1278.349    361.97803     485.8736    191.66936    35521.095 
   24300    301.30057   -1253.5166     362.8589    474.48434    -144.0885    35521.095 
   24400    296.44419   -1280.8333    359.38233    421.68764   -98.890864    35521.095 
   24500    304.02388   -1300.6427    357.59703    434.43525   -153.67986    35521.095 
   24600    294.13394   -1292.5808    389.96078    430.05122   -71.885314    35521.095 
   24700    290.14749   -1292.5819     364.8123    386.83977   -163.56178    35521.095 
   24800     291.7204   -1359.1191    368.52855    331.14539   -800.69513    35521.095 
   24900    301.03767   -1281.9417    371.75339    453.76263    -323.8564    35521.095 
   25000    312.37426   -1280.2164    348.64925     483.7479   -538.63691    35521.095 
   25100     306.6587   -1250.0445    366.52683    505.90115   -147.57494    35521.095 
   25200    293.72782   -1273.1283    351.99042    409.69336    117.39173    35521.095 
   25300    309.87551   -1282.1217    365.31699    487.18896    36.772511    35521.095 
   25400     307.6737   -1307.0831    378.21022    465.14473   -162.26771    35521.095 
   25500    298.15709   -1275.9657    384.55497    459.48875   -555.39613    35521.095 
   25600    293.80726   -1261.9731    364.40274    433.62078   -347.79701    35521.095 
   25700    293.91115   -1259.6183    347.86949    419.91298   -210.40631    35521.095 
   25800    305.43504   -1267.0571     325.5132     442.3307    311.82002    35521.095 
   25900    307.26058   -1256.6104    378.76248     514.2979   -47.646703    35521.095 
   26000    294.74461   -1273.6001    361.60796    423.44595    7.8674777    35521.095 
   26100     303.0966   -1267.7461    376.54035    482.07377   -129.70853    35521.095 
   26200    293.11639   -1256.0266    366.28882    438.32313   -298.32567    35521.095 
   26300    302.65408   -1247.0095    377.61357    501.87862   -391.39854    35521.095 
   26400    293.95534   -1269.5141    380.40739    442.75532    96.756851    35521.095 
   26500    303.23467   -1297.0888    389.99166      466.808    198.93069    35521.095 
   26600    306.82565   -1297.3498     348.5844     441.4099    490.37707    35521.095 
   26700    298.55889   -1299.2303    374.48621    427.97587    152.63694    35521.095 
   26800    301.98973   -1264.6451    376.01038    479.62979    575.72416    35521.095 
   26900    309.77834   -1308.6278     384.7244    479.64999    402.05116    35521.095 
   27000    301.41184   -1260.1871    374.79873    480.25783    264.90592    35521.095 
   27100    305.15979   -1272.3878    360.68048    470.92018    151.44954    35521.095 
   27200     295.5536   -1289.3491    383.57682    433.33125    66.683262    35521.095 
   27300    295.99797   -1342.5591     375.7919    374.34965    785.84192    35521.095 
   27400    299.97549   -1308.1594    371.74502    422.72397    521.40546    35521.095 
   27500    294.11952   -1313.8012    387.65082    406.45552    309.85106    35521.095 
   27600    297.59631   -1309.1995    371.72694    410.88611    384.40686    35521.095 
   27700    303.39638   -1295.8002    388.17664    467.01425    10.147712    35521.095 
   27800    300.59388   -1301.0622    360.94034    421.81832    480.02588    35521.095 
   27900    294.67243   -1317.3723    386.21035     403.9491    260.85267    35521.095 
   28000    303.62155   -1332.8539    370.21368    413.01778    261.70488    35521.095 
   28100    299.09251   -1264.2708    393.75812    484.62506    626.95884    35521.095 
   28200    306.09467   -1311.1861      367.164     442.8412    91.251843    35521.095 
   28300    286.59724    -1289.554    382.23281    391.20259    156.86436    35521.095 
   28400    299.25681   -1303.0223    375.23761    428.09745   -105.04233    35521.095 
   28500     303.8856   -1275.1375    380.22717    481.94411   -291.23365    35521.095 
   28600    294.72491   -1289.6592    380.70392    426.39353    243.63963    35521.095 
   28700    296.89642    -1299.039    382.92731    429.07594    668.94373    35521.095 
   28800    295.72164   -1305.3577    386.22873    420.73594    306.59334    35521.095 
   28900    303.00413   -1333.6868    370.78941    409.96324    347.59273    35521.095 
   29000    299.45985   -1328.5146    375.95062    404.23805    85.783217    35521.095 
   29100    303.21456   -1315.6843    386.27525      444.405    392.16021    35521.095 
   29200    301.76681   -1328.2686    382.26749    421.25337    195.13578    35521.095 
   29300    290.28643   -1327.6075    386.61293    374.24421    511.67858    35521.095 
   29400    296.16371   -1284.0117    382.43488      440.291   -195.63069    35521.095 
   29500    296.26499   -1242.1855    407.68105    507.82226    -395.5894    35521.095 
   29600    291.40033   -1269.9449    383.12025    433.46112   -449.68101    35521.095 
   29700    298.07856   -1270.0273    391.67108    472.18747    166.43214    35521.095 
   29800    317.46168   -1268.3536     382.3682    552.37992    127.23531    35521.095 
   29900    311.69455   -1288.6522    395.99754     519.5808    225.39738    35521.095 
   30000    303.80303   -1284.2242    386.11908     478.3752    892.87216    35521.095 
   30100    298.19761   -1277.5755    404.65146    478.15901   -113.01051    35521.095 
   30200    298.42805   -1294.0645    390.33249    448.39517    24.315054    35521.095 
   30300    312.87925   -1278.5277    396.31878    535.39419   -301.95785    35521.095 
   30400    303.55342   -1302.1628    377.28621    450.47272    271.14401    35521.095 
   30500    303.69162   -1334.8161    382.32895    423.48832    539.24577    35521.095 
   30600    286.31185   -1336.2758    403.90228    364.85715     393.0201    35521.095 
   30700    299.59245   -1317.3542    374.80423    414.85285     27.21612    35521.095 
   30800    302.11087    -1342.689    374.50671    400.63105   -261.25961    35521.095 
   30900    308.07116   -1315.4181    387.36554    467.76591    356.50534    35521.095 
   31000    307.67512   -1348.1515    424.90424    470.77681    723.15676    35521.095 
   31100     303.7585   -1330.2072    408.81774    454.88906    435.41875    35521.095 
   31200    300.44125   -1338.8627     376.2767    398.66254    788.00983    35521.095 
   31300    299.66108   -1309.9966    396.88954    444.60668    602.65371    35521.095 
   31400    304.43681   -1334.4694    365.67773    410.56014   -212.45656    35521.095 
   31500    301.63409   -1340.9507    346.92244    372.62486    229.91085    35521.095 
   31600    306.85634   -1349.2382       401.76    442.83611    286.68386    35521.095 
   31700    297.56372   -1374.8254    399.96128    373.34692     476.7893    35521.095 
   31800    306.72009   -1383.9564    398.11697    403.85754    716.43161    35521.095 
   31900    293.12739   -1354.9391     392.4181    365.58975    685.78523    35521.095 
   32000     294.6207   -1293.2313    400.37234    442.01773    555.44426    35521.095 
   32100    296.50337   -1306.2501    416.76054    453.91716    164.22871    35521.095 
   32200    302.01445   -1278.2325    397.90128    488.04531   -233.78527    35521.095 
   32300    315.54011   -1297.5224    393.99456    526.13115    360.69272    35521.095 
   32400    294.67131   -1326.7032    389.96803    398.37084   -19.219091    35521.095 
   32500    294.18938   -1333.3095    398.11796     397.7309   -103.87646    35521.095 
   32600    298.43424   -1346.2763    411.44535    417.32428   -299.29111    35521.095 
   32700    304.06369   -1330.1777    399.82672    447.31029   -229.71533    35521.095 
   32800     307.8789    -1345.764    398.35402    447.53739   -408.43494    35521.095 
   32900     294.5392   -1318.5079    386.40565    402.40521   -670.45265    35521.095 
   33000    310.92904   -1327.2668    392.95491    474.45508    83.983818    35521.095 
   33100    305.52486   -1323.7002    404.28863       464.87    551.01771    35521.095 
   33200    298.56389   -1299.5178    389.45198    442.67683    915.37384    35521.095 
   33300    308.37832   -1285.2536    383.84194    495.79844    405.02694    35521.095 
   33400    301.61785   -1292.9095    392.16046    465.83058    -106.1013    35521.095 
   33500    292.11672   -1281.3055    407.51048    449.73653    460.72679    35521.095 
   33600    286.17806   -1340.2824    393.09791    349.43998    405.30407    35521.095 
   33700    304.64729   -1294.5637    423.56727    509.30902    171.29016    35521.095 
   33800    306.47216    -1295.527    407.02483    500.07144    385.88136    35521.095 
   33900     300.0648   -1296.9654    398.32755     460.9051    492.19987    35521.095 
   34000    296.47888   -1293.1829    413.70019    463.81311   -72.090179    35521.095 
   34100    298.65509    -1329.917    398.50534    421.74418    11.584877    35521.095 
   34200    288.63317   -1353.6303    399.16147    353.27935    377.46429    35521.095 
   34300     296.5706   -1338.4318    398.70253    403.98208    490.14209    35521.095 
   34400    295.50864   -1354.1408    406.97039    391.72942     509.4331    35521.095 
   34500    292.85999   -1346.5176    408.23145    388.61311   -159.73921    35521.095 
   34600    308.01902   -1350.7716     381.4457    426.25631     45.87781    35521.095 
   34700    311.40481   -1299.4281    393.19843    504.69304   -81.152564    35521.095 
   34800     300.5162   -1288.5431    390.23029    463.27538   -115.42595    35521.095 
   34900    300.25335   -1316.9896    389.66596    433.07364    225.36217    35521.095 
   35000    306.88455   -1321.1337    416.50931    485.81768    167.50199    35521.095 
   35100    292.58642   -1275.7913    403.75063    453.61899    1.5616204    35521.095 
   35200    313.78185   -1315.4326    426.16751    532.42749    368.71908    35521.095 
   35300    300.39802   -1309.0114    401.10581    453.14712    260.82604    35521.095 
   35400    306.51506   -1323.9602    393.55301    458.36083   -189.62367    35521.095 
   35500    295.02863    -1305.229     383.5863    415.08227     71.27971    35521.095 
   35600    292.59669   -1351.6131    390.64224    364.73534   -59.007037    35521.095 
   35700    299.16127   -1317.2982    404.32755    442.47864   -325.07425    35521.095 
   35800    292.62456   -1313.4184    410.17611     422.5902    -924.0093    35521.095 
   35900    306.53346   -1315.5807    407.60892    480.87957   -569.48962    35521.095 
   36000    302.86714   -1329.0787     412.8291    455.99031   -739.82345    35521.095 
   36100    301.55219   -1313.6795    408.88962    461.49224    -1.353421    35521.095 
   36200    294.96234   -1314.6034    393.31144    415.13262    82.221791    35521.095 
   36300    299.56002   -1302.7565    422.84299    477.34245    499.82055    35521.095 
   36400    300.93048   -1320.5736    401.77875    444.67034    273.07518    35521.095 
   36500    306.03911   -1323.5153    399.77908    462.87531    264.06625    35521.095 
   36600    295.58041   -1303.0792    412.58783    448.73363    342.85657    35521.095 
   36700    294.57409   -1364.4469    390.85926     361.0779    737.24269    35521.095 
   36800    297.43937   -1397.9624     412.8278    362.51303    481.36591    35521.095 
   36900    295.27702   -1334.8673    410.98792    413.97094    360.23377    35521.095 
   37000    303.64042   -1332.1102    404.71898    448.35233    389.70983    35521.095 
   37100    302.74268    -1358.459      407.081    420.29803    408.26622    35521.095 
   37200    303.81846   -1328.4492    409.97888    458.07989   -96.548565    35521.095 
   37300    292.05866   -1340.1599    420.45248    403.56108   -124.42406    35521.095 
   37400    292.29922   -1338.0511    406.76679    393.07415     428.2735    35521.095 
   37500    297.55838    -1370.782    416.13278    393.53763    -246.8947    35521.095 
   37600    304.46074   -1344.3041    411.20786    446.36401    426.52877    35521.095 
   37700    297.34176   -1293.8505    422.36191    475.71672    177.76162    35521.095 
   37800    306.64698   -1354.1879    401.55123    436.72906    671.32798    35521.095 
   37900    297.26109    -1363.421    399.99158    383.41042    143.69601    35521.095 
   38000    303.51408   -1312.5116    377.08923    439.74866    202.39576    35521.095 
   38100    293.24718   -1332.0798    400.04102    396.61467   -209.17218    35521.095 
   38200    300.76801   -1340.0011    418.65642    441.38443    231.67291    35521.095 
   38300    294.74257   -1363.4003     422.6198    394.64843    589.78582    35521.095 
   38400    295.64214   -1373.7488    400.45005    366.20595    84.544864    35521.095 
   38500    302.75073   -1299.7009    403.14797    475.15949    52.677949    35521.095 
   38600    292.94031   -1340.7823    422.66671    409.14753    364.31393    35521.095 
   38700    311.50175   -1313.4386    395.80699    493.73026    529.80289    35521.095 
   38800    296.71765   -1321.0408     415.1617    438.49845    440.29238    35521.095 
   38900    296.88721   -1352.4456    423.83749    416.53778     286.9019    35521.095 
   39000    309.93318   -1363.3412    399.54467    440.45841    389.10483    35521.095 
   39100    304.95612   -1350.6058    418.32134    449.42029    -105.0954    35521.095 
   39200    304.08432   -1321.9916    402.02027    457.78343    746.02154    35521.095 
   39300    296.07226   -1306.2662    405.06556    440.25282     82.18262    35521.095 
   39400    301.08476   -1320.9191    431.98972    475.23481   -379.56897    35521.095 
   39500    296.36684   -1312.1892    402.09024     432.6892    308.35378    35521.095 
   39600    299.73889   -1375.6126    411.14746    393.60119     430.6335    35521.095 
   39700    308.44585   -1339.4722     415.7334    473.77731     524.0944    35521.095 
   39800    309.43312   -1315.6504    392.46556    478.80437    458.93412    35521.095 
   39900    304.13508   -1371.0474    415.41966    422.35699   -280.48556    35521.095 
   40000    296.62533   -1353.1317    394.64438    385.47201    27.412814    35521.095 
   40100    291.80352   -1310.4213    394.42784    406.11904    54.272217    35521.095 
   40200    304.21567   -1296.9072    426.42303    507.86567   -60.123765    35521.095 
   40300    305.74006    -1301.011    414.80021    499.04581   -243.58971    35521.095 
   40400    309.38603   -1323.0009    397.55505    476.33008   -563.74092    35521.095 
   40500      299.772   -1282.6399    410.60205     486.1785   -403.22004    35521.095 
   40600    297.57087   -1314.6267    404.65461    438.27127    77.818609    35521.095 
   40700    291.86126   -1306.9393     411.0684    426.50316   -344.25267    35521.095 
   40800    294.38973   -1315.0929    424.15113    442.88841   -387.83505    35521.095 
   40900    294.89934    -1283.978    405.48263    457.64376   -729.13949    35521.095 
   41000    312.41485    -1301.748     394.4184    508.16935    515.76381    35521.095 
   41100    298.28254    -1331.125    401.51101    421.85387    404.23286    35521.095 
   41200    304.61861   -1261.8073    401.78961    520.15787    271.07817    35521.095 
   41300    306.73573   -1283.3031    399.23187    505.69659    643.67418    35521.095 
   41400    301.25968     -1349.45    406.74779    422.25458  -0.76108699    35521.095 
   41500    304.13813   -1352.6064    399.20204    424.59417    193.99884    35521.095 
   41600    298.47146   -1349.7474    391.81154    394.38797   -171.94985    35521.095 
   41700     312.2639   -1346.4895    380.58239    448.90791    128.43326    35521.095 
   41800    293.77194   -1400.7542     381.7588    312.03573    291.74433    35521.095 
   41900    294.62316   -1351.3921    410.37284    393.86859     541.5683    35521.095 
   42000      304.228   -1356.9478    425.98321    447.44116   -54.579959    35521.095 
   42100    308.22778   -1380.0922     416.5145    432.95031   -93.469466    35521.095 
   42200    294.64561   -1379.9569    403.60107    358.63373   -56.769587    35521.095 
   42300    296.55316   -1412.3715    403.42617    334.68702   -57.842222    35521.095 
   42400    297.31198   -1379.5115    416.60888    384.16775   -377.08888    35521.095 
   42500    312.20446   -1364.0305     415.1528    465.66801    90.254189    35521.095 
   42600    294.47447   -1378.4443    390.63615    346.40601   -168.34632    35521.095 
   42700    301.54779   -1357.5631    409.34892    418.04798    296.87205    35521.095 
   42800    306.97709   -1348.1537    385.92258    428.63027    340.03455    35521.095 
   42900    299.85901   -1323.0766    413.17544    448.70938    -512.4456    35521.095 
   43000    284.00681   -1351.8384    428.02273     362.9713   -454.28161    35521.095 
   43100     301.6873   -1352.2074    433.58299    448.26984   -270.72883    35521.095 
   43200    305.35849   -1342.2188    431.11066    472.41963   -193.29486    35521.095 
   43300    313.19916   -1335.5652    426.90257    510.38991    188.74471    35521.095 
   43400    299.98243   -1309.5495    431.38966    481.00994      523.159    35521.095 
   43500    299.68291   -1300.1121    441.13673    498.83737   -102.25193    35521.095 
   43600    305.38959   -1361.5761    438.57175    460.66439    250.06329    35521.095 
   43700    309.13143   -1380.9832    427.65904    447.29818   -13.196411    35521.095 
   43800    287.14632   -1387.7734    453.27239    366.51056    138.76343    35521.095 
   43900    308.03603   -1354.6663    419.87024     460.8632   -111.83683    35521.095 
   44000    310.17368   -1334.9988    430.08728    500.43304   -645.01421    35521.095 
   44100    305.89191   -1367.7557    404.56027    422.74925   -450.90889    35521.095 
   44200     299.2436   -1380.2781    413.84546    389.38964    185.04782    35521.095 
   44300    309.95226   -1320.6878    391.25121    474.90482   -465.89837    35521.095 
   44400    295.66222   -1371.1177     406.6029     375.0808   -662.64357    35521.095 
   44500    296.56079   -1318.7878    450.08881    474.96792   -202.79227    35521.095 
   44600    301.04987   -1337.3611    444.69064    471.33573     212.7643    35521.095 
   44700    311.64687   -1379.8661    407.12174    439.27503     610.2862    35521.095 
   44800    290.09773   -1344.0844    417.04305    387.34256    260.42813    35521.095 
   44900    305.18773   -1344.1654    430.44666    469.03534    355.85362    35521.095 
   45000    308.17068   -1343.6939     424.0618    476.63721    603.21646    35521.095 
   45100    307.62321   -1318.7541    470.86047    545.89517    -105.6045    35521.095 
   45200     306.7764    -1321.961    437.28924     505.2804    139.16165    35521.095 
   45300    305.36488   -1344.5431    409.40017    448.41384   -14.177319    35521.095 
   45400    298.73238   -1316.5978    416.97806    453.88634   -178.92125    35521.095 
   45500    295.45775   -1406.6603    410.48485    342.49377   -204.23918    35521.095 
   45600    294.41525   -1373.3582    389.96206    350.54968   -403.34708    35521.095 
   45700    297.25329   -1323.7617    409.47659    432.51936    158.30314    35521.095 
   45800    303.67468   -1345.4436    416.55824    447.01343    678.47943    35521.095 
   45900    296.38621   -1351.2142    415.54569    407.20745    59.990002    35521.095 
   46000    299.99333   -1372.7989    440.55546    426.97575    119.60844    35521.095 
   46100    302.19493   -1332.3665    432.37798    469.20572    638.60095    35521.095 
   46200    294.08397   -1392.2909    447.72232    387.87628    315.59769    35521.095 
   46300    299.48685   -1399.5948    448.44836    405.77795   -3.9388999    35521.095 
   46400     293.2136   -1386.0163    413.16597    355.65096     192.4696    35521.095 
   46500    298.10031   -1423.1397     407.9757    335.47819   -75.478917    35521.095 
   46600    295.40419    -1383.197    419.34343    374.57301   -34.347309    35521.095 
   46700    289.64057    -1373.989    406.35701    344.68059    601.58645    35521.095 
   46800    307.12706   -1417.2817    416.36837    390.62758    983.06329    35521.095 
   46900    307.27618    -1405.273     441.2315     428.1751     559.6612    35521.095 
   47000    302.81724   -1357.4357    427.94588    442.52396    314.54285    35521.095 
   47100    291.91624   -1325.5363    436.38862    433.47552    269.44275    35521.095 
   47200    307.33843   -1374.2133    409.51096     427.7963   -145.15191    35521.095 
   47300    297.37911   -1413.6237     408.1523    341.90316    139.19142    35521.095 
   47400    296.85255   -1387.8942    426.18398    383.27855    49.270085    35521.095 
   47500    307.54912   -1400.5774    426.29227    419.16804     187.2173    35521.095 
   47600    307.53691   -1358.3018     415.9055    451.00154    603.23728    35521.095 
   47700     301.2917   -1354.3815    415.39744    426.11786    178.20789    35521.095 
   47800    294.87134   -1347.5564    433.59317    422.04906   -196.57438    35521.095 
   47900    297.12331   -1368.6359    417.13164    394.71134    275.16372    35521.095 
   48000    304.76906   -1309.7332    422.55156    493.67558   -188.93892    35521.095 
   48100    297.49783   -1330.6837    409.23686    426.46566   -658.68587    35521.095 
   48200    302.65426   -1320.6414    432.82218     483.4562   -483.94777    35521.095 
   48300     295.1885   -1286.8256    446.94143    497.56517    -28.43621    35521.095 
   48400    302.55209   -1355.1627    428.91945    444.56921   -269.12165    35521.095 
   48500    291.13165    -1305.224    430.40615    444.25049   -410.93169    35521.095 
   48600    306.12539    -1255.995    431.41765    562.42513   -271.97596    35521.095 
   48700    297.29275    -1289.059     442.6616    500.58592   -174.87234    35521.095 
   48800    293.36623   -1338.4032    419.44537    410.23503    -21.38051    35521.095 
   48900    294.43068   -1316.4376     426.5874    444.16558    300.58539    35521.095 
   49000    299.28907   -1342.0539    415.00183    428.97619    563.38507    35521.095 
   49100    298.81204   -1342.3148    421.47673    433.02881    139.88536    35521.095 
   49200    304.55666   -1337.0966    439.16699    481.96525   -90.591761    35521.095 
   49300    301.59659   -1330.9732    416.26095    451.77101    519.86404    35521.095 
   49400    291.76807   -1316.2812    461.62556    467.29627    358.30475    35521.095 
   49500    295.02833   -1375.5106    444.72628    405.93923   -145.70584    35521.095 
   49600    302.81863   -1334.6212    416.81978     454.2187    486.35827    35521.095 
   49700    300.85689    -1339.889    427.96815    451.21095    658.10041    35521.095 
   49800    296.04033    -1331.444    444.52316    454.38789    281.37744    35521.095 
   49900    291.99655   -1341.7101    438.68017    419.95718    425.76601    35521.095 
   50000    311.98522   -1363.5772    427.32753     477.3027    263.01748    35521.095 
   50100    303.70301   -1371.8905    436.36015    440.49674    601.68299    35521.095 
   50200     299.7727   -1385.0393    422.65541    395.83567    676.28699    35521.095 
   50300     303.6966   -1391.2734    447.48921    432.21387    341.11568    35521.095 
   50400    294.94273   -1370.9939    417.64361    382.98545   -34.464012    35521.095 
   50500    315.70388   -1347.1151    450.34769    533.63363    70.129025    35521.095 
   50600    293.18126   -1358.3262    450.86621    420.89486   -123.60841    35521.095 
   50700    310.88057   -1344.9278    418.54701    482.16664    85.582034    35521.095 
   50800    304.10579   -1306.8671    458.09746    529.08242    147.99022    35521.095 
   50900    290.56501   -1338.3119    440.69015    418.87932    5.4538665    35521.095 
   51000    299.08812   -1331.8007    433.23098    456.54811    538.51406    35521.095 
   51100    291.31369   -1381.5005    446.36476    384.75745   -27.760625    35521.095 
   51200    298.75719   -1379.1607    431.34117    405.79891    440.38494    35521.095 
   51300    305.00538   -1398.1118    437.38488    421.20106    398.78959    35521.095 
   51400    307.39885   -1336.1102    429.68343    486.34556   -5.7587785    35521.095 
   51500    296.57305   -1344.4051    430.51741    429.83477   -221.70427    35521.095 
   51600    296.54062   -1344.4917     434.6423    433.72615    112.22305    35521.095 
   51700    298.83514   -1364.6104    434.39197    423.75321    222.18061    35521.095 
   51800    299.51453   -1378.5318    438.56448    417.08245    405.48095    35521.095 
   51900     295.4698   -1360.5445    448.45419    426.63347    413.88399    35521.095 
   52000    296.28439   -1364.5385    443.14662    421.02271    287.81394    35521.095 
   52100    304.98773   -1380.2026    448.22736    449.87275    583.26387    35521.095 
   52200    296.74491   -1369.2246    440.46208    415.73862    491.42143    35521.095 
   52300    295.26717   -1410.5433    434.39429    361.65668    716.20373    35521.095 
   52400    309.01701   -1395.0333     451.5596    456.63024    940.05115    35521.095 
   52500    309.19546   -1408.0836    457.69258    450.52146    645.85305    35521.095 
   52600    303.64001   -1394.9058    445.61032    426.44624     450.1989    35521.095 
   52700    300.16177   -1419.9946    444.32617    384.31395    640.89004    35521.095 
   52800    301.52436   -1349.6655    450.61877    467.10924    1040.8122    35521.095 
   52900    301.23011   -1335.8381    467.56423    496.54892    893.85926    35521.095 
   53000     302.4145   -1347.0302    464.29406    487.45293    1141.8727    35521.095 
   53100    307.20813   -1366.7966    474.29005    499.40167    998.38352    35521.095 
   53200    312.50692   -1294.4896    476.14165    597.56815    593.28644    35521.095 
   53300    294.01754   -1378.3708    456.57569    410.34879     236.4877    35521.095 
   53400    297.92718   -1382.3619    462.88764    430.38355    201.85479    35521.095 
   53500    301.48562   -1359.9716    439.91745    445.92638    -310.7812    35521.095 
   53600    305.80577   -1331.8041    454.75794    508.50824   -283.45025    35521.095 
   53700    293.06528   -1347.5128    434.10936    414.42589   -277.71162    35521.095 
   53800    303.80899   -1370.2561    429.94778    436.19896   -51.667594    35521.095 
   53900    292.64135   -1329.7829    476.71173     472.8374   -161.87784    35521.095 
   54000    288.85112   -1338.4443    450.68285    420.97425   -267.21753    35521.095 
   54100    299.42965   -1382.1383    433.81892    408.34578     94.86663    35521.095 
   54200    302.44493   -1370.0957    427.81466     428.0459    36.669081    35521.095 
   54300     296.9724   -1378.4753    450.69502    417.75151    3.1757671    35521.095 
   54400     290.1665   -1437.3454    446.48664     323.8367    -216.0871    35521.095 
   54500    298.76846   -1406.1847    415.41946    362.90422      95.1949    35521.095 
   54600    290.90584   -1370.4059     454.0988    401.73821   -45.251444    35521.095 
   54700     294.9037   -1398.2232    431.96055    369.89623    447.37799    35521.095 
   54800    299.46239   -1364.1137    472.13549    464.83536   -426.73944    35521.095 
   54900      294.185   -1355.4623    455.00003    432.44029     156.0814    35521.095 
   55000    304.19476   -1378.6478    421.76002    421.36736    493.45387    35521.095 
   55100    297.52048   -1397.1254    436.34626      387.236    371.68351    35521.095 
   55200    306.04832   -1391.0929    428.55297    424.11341    1058.7537    35521.095 
   55300    303.87593   -1367.9448    447.37732     456.2431    904.48908    35521.095 
   55400    317.08473   -1436.4689    437.79257    437.98102    286.22356    35521.095 
   55500    298.74803   -1376.6836    446.44413    423.33749    278.92333    35521.095 
   55600    295.77906   -1363.6394    436.74437    413.22996   -88.344932    35521.095 
   55700    297.02686   -1370.1056     442.9975    418.67052   -667.09037    35521.095 
   55800    291.70564   -1359.1988    472.86353    435.33382    -699.6398    35521.095 
   55900    298.60677   -1371.8252    468.93595    450.04765   -817.52254    35521.095 
   56000    290.35616   -1409.7572    424.88033    330.67784   -780.28043    35521.095 
   56100    305.51588   -1412.9246    413.85722    385.17359   -857.55967    35521.095 
   56200    303.07065    -1445.138     448.7914    376.81543   -329.12812    35521.095 
   56300       290.74   -1423.2813    438.70833    332.72094   -347.80202    35521.095 
   56400    300.43236   -1423.3297    457.23327    395.11195   -28.371979    35521.095 
   56500    311.14543   -1433.8294    446.70127    422.61931   -481.35859    35521.095 
   56600     306.6123   -1418.6123    447.26856    417.86482   -62.524275    35521.095 
   56700    303.89401   -1416.6122    438.56015    398.84044   -209.98184    35521.095 
   56800    301.28956   -1437.5497    456.69348    384.23591    -92.10964    35521.095 
   56900    289.91024   -1407.9628    422.88312    328.45468    646.57825    35521.095 
   57000    300.74126   -1401.6413    437.12328    398.08987   -217.35716    35521.095 
   57100    298.66265   -1437.8818    431.36135    346.66967   -53.015693    35521.095 
   57200    307.99534   -1407.9369    432.34699      419.885    341.39004    35521.095 
   57300    299.10193    -1404.772    454.03523    404.44363    196.75053    35521.095 
   57400    306.47259   -1429.8513    431.88966    390.61395   -216.42916    35521.095 
   57500    301.90375   -1422.3411    448.06901    393.60284   -105.88398    35521.095 
   57600     292.2299   -1391.6036    458.34738    390.78811   -127.79207    35521.095 
   57700    299.66443   -1393.1891    452.94263     417.4825   -348.73899    35521.095 
   57800    297.88776   -1419.4413    427.52512    357.76304    238.99597    35521.095 
   57900    306.06006   -1440.5577    454.94914    401.09799     441.1071    35521.095 
   58000     294.8818    -1429.088    457.84458    364.81629    694.63535    35521.095 
   58100    289.66298   -1456.2313    453.50265    309.68545    507.00163    35521.095 
   58200    306.56073   -1449.1188    475.06278    414.91894    60.084594    35521.095 
   58300    299.47263   -1416.1878    460.02573    400.69787    530.30448    35521.095 
   58400     300.5501   -1419.5848     453.6332    395.79017     1115.822    35521.095 
   58500    305.28549    -1412.137    472.33742    443.39747    817.51478    35521.095 
   58600    304.52198   -1420.6394    472.53975    431.63807    608.48916    35521.095 
   58700    297.15508   -1419.8225    443.75089     370.2879    447.43735    35521.095 
   58800    303.83945   -1384.5484    423.96563    416.06257    37.063728    35521.095 
   58900    306.11466   -1446.1412    449.03777    389.85047   -143.62334    35521.095 
   59000     305.3098   -1465.5936    450.69989    368.41352    284.43142    35521.095 
   59100    309.77158   -1454.6795    463.39646    412.23969    298.05884    35521.095 
   59200    301.34698   -1381.6534    466.14218     449.8411    -158.7607    35521.095 
   59300    301.72897   -1443.4528    467.18917    390.81941   -201.93173    35521.095 
   59400    291.59832   -1420.9656    442.47148    342.68869   -98.364454    35521.095 
   59500    293.15624   -1401.7664    472.20076    398.67578   -377.58935    35521.095 
   59600    304.65401   -1419.6427    433.41492    394.10816   -820.71749    35521.095 
   59700    314.95701   -1421.7914    448.79349    454.01915   -382.49024    35521.095 
   59800    298.77592   -1412.2911    452.51717    393.92933    -373.2802    35521.095 
   59900     298.0817   -1401.9584    442.88633    391.48585   -286.78616    35521.095 
   60000    306.86503   -1374.7612    437.32494    452.91737   -492.87818    35521.095 
   60100    294.11746   -1371.4756    466.49028    427.61129   -140.54446    35521.095 
   60200    296.91369   -1399.5422    463.11879    408.84243   -157.60026    35521.095 
   60300    299.33354   -1407.5733    488.02138    436.67781   -269.80261    35521.095 
   60400     293.6504   -1451.3891     456.7895    335.88085    -242.0596    35521.095 
   60500    303.97686   -1411.4563     457.2225    423.03404    396.90916    35521.095 
   60600    311.00321   -1370.3692    459.98345    498.71733    47.985373    35521.095 
   60700    303.84803    -1386.031    444.90062    435.55382   -354.05988    35521.095 
   60800    302.00878   -1346.1035    457.70561    479.95298   -627.37512    35521.095 
   60900    312.69265    -1381.208    470.84808    506.39768   -713.85128    35521.095 
   61000    301.52525    -1385.183    467.27326    448.25031    25.806754    35521.095 
   61100    298.53004   -1419.5393    488.34889    421.39881   -71.836569    35521.095 
   61200    301.67247   -1390.0419    471.86014    448.64536    364.51857    35521.095 
   61300    298.17421   -1378.6646    467.53651    439.84896    266.00039    35521.095 
   61400    296.63061   -1369.2067    464.49113    439.26762    7.6120836    35521.095 
   61500    302.07379   -1406.4401    468.60017    430.80547    58.255483    35521.095 
   61600    300.86062   -1347.3806    468.23548    484.00358    98.500363    35521.095 
   61700    296.49558   -1374.5887     470.1564    438.93911   -115.48837    35521.095 
   61800    301.53353   -1368.6112    456.91328    454.49965   -237.88312    35521.095 
   61900    300.26243   -1341.5178    481.23442    500.15504   -26.051716    35521.095 
   62000    308.55894   -1357.2662    462.72987    503.49218     27.66182    35521.095 
   62100    297.79714   -1368.5548    482.08527    462.79903   -339.87498    35521.095 
   62200    300.78317   -1410.0479    460.43172    413.18158    -214.9008    35521.095 
   62300     311.0537   -1432.1757    440.76535    417.92148   -572.79088    35521.095 
   62400    296.95309   -1372.0803    456.72483     430.0889    235.35133    35521.095 
   62500    308.87501   -1372.1289    459.53542    486.86708   -199.09468    35521.095 
   62600    297.95406   -1385.5073    475.12646    439.59873   -65.956701    35521.095 
   62700    299.33876   -1371.5449    446.70555    431.41405   -245.22893    35521.095 
   62800    299.47186   -1365.4312    473.71458    465.13983    422.34838    35521.095 
   62900    299.95246   -1372.8917      445.235    431.37729   -561.50473    35521.095 
   63000    303.15191   -1363.2245    458.10826    468.41389   -810.91821    35521.095 
   63100    306.04732   -1374.3004     487.0256    499.37397   -829.94328    35521.095 
   63200    297.80769   -1364.1736     455.9081    441.05086   -325.61694    35521.095 
   63300     300.4398   -1362.9918    472.73891    470.98922    459.98521    35521.095 
   63400    312.12624   -1408.6787    481.79772    487.31037     322.8169    35521.095 
   63500    303.63074   -1432.0803    453.02498    396.64432    272.09835    35521.095 
   63600      297.423   -1383.8707    451.34552    415.04823     773.3301    35521.095 
   63700    290.68961   -1449.7474    456.85412    324.17228    315.86875    35521.095 
   63800    310.23709   -1420.5092    458.76264    443.88536    395.51657    35521.095 
   63900     294.7933   -1386.4159    448.21918    397.46192   -199.57255    35521.095 
   64000    289.37385   -1421.3774    483.95577    373.68246   -401.85709    35521.095 
   64100    293.72297   -1419.1115      465.973    377.67077   -311.86294    35521.095 
   64200    300.27338   -1417.1127     449.7625    393.13787   -506.59939    35521.095 
   64300    291.84048   -1452.6173    445.10613    314.76882   -513.97993    35521.095 
   64400    304.99501   -1433.5416    436.32724    384.66658    521.19628    35521.095 
   64500     266.6536   -1455.1613    434.85943    187.86058    174.98652    35521.095 
   64600    303.61563   -1415.7313    469.80257    429.70247    81.257914    35521.095 
   64700    303.06067   -1451.5453    481.27858    402.85001    205.03527    35521.095 
   64800    305.00488   -1396.1027    470.81003      456.633   -63.051698    35521.095 
   64900    307.17132   -1378.8322    461.25539    474.16465    172.31326    35521.095 
   65000    303.09122   -1404.2597    464.03906    433.03453    415.84623    35521.095 
   65100    290.89598   -1412.5661    473.47706    378.91155  -0.91567482    35521.095 
   65200    293.40832   -1461.7542     463.0505    330.67985   -42.030638    35521.095 
   65300    287.96488   -1440.7021    467.46877    331.48699    539.29661    35521.095 
   65400    304.14842   -1462.5557    440.72196    356.21143    218.27592    35521.095 
   65500    291.91034   -1416.4816    456.97072    363.08564    -368.7696    35521.095 
   65600    304.19989   -1431.6413    470.64192    417.27895   -330.08031    35521.095 
   65700    300.32432   -1407.2065    454.34913    407.86145   -511.21127    35521.095 
   65800    309.28438   -1395.8688    484.33775     489.7843   -191.39792    35521.095 
   65900    301.09432   -1435.1288    477.64534    406.72414   -917.35642    35521.095 
   66000    289.93579   -1414.4138    467.16635    366.40268   -326.94792    35521.095 
   66100    287.92028   -1461.9045    445.36131      287.975   -560.36137    35521.095 
   66200     310.8412   -1467.6662    476.29917    417.00195   -276.32235    35521.095 
   66300    295.81352   -1426.9753    471.81824    385.12405   -261.62852    35521.095 
   66400    306.52257   -1426.2307    465.97424    428.54558   -489.76492    35521.095 
   66500    293.09701   -1406.9139    474.53421    395.59344   -512.23169    35521.095 
   66600     301.9962   -1442.5469    476.38734     402.1343    264.02486    35521.095 
   66700    301.18453   -1426.7118    448.99304    386.89749    450.42019    35521.095 
   66800     299.9156   -1462.3776    466.47415     362.9635    425.55646    35521.095 
   66900    297.41686   -1435.0689    476.46309    388.93981    583.68118    35521.095 
   67000    296.55475   -1447.6464    482.23041     378.2235    97.232176    35521.095 
   67100    298.96013   -1436.7697    486.65933     404.4276    463.12347    35521.095 
   67200    299.14679   -1395.2932    471.58887    431.67929    612.98515    35521.095 
   67300    290.50658   -1449.1226    458.08111    325.19475    94.606413    35521.095 
   67400    296.58212   -1443.5728    496.92331    397.11409    703.74996    35521.095 
   67500     302.2757   -1460.0886    464.83728    374.30891   -33.746631    35521.095 
   67600    293.44998   -1455.2193    470.83459    345.18767   -57.120458    35521.095 
   67700     308.2451   -1415.7969    480.13076    460.94041     59.56798    35521.095 
   67800    301.80317   -1460.6993    459.66764    366.38757    492.70993    35521.095 
   67900    306.80127   -1451.7239    462.55944    400.90035    473.12178    35521.095 
   68000    303.51029   -1436.7312    450.05252    388.47526   -137.78067    35521.095 
   68100    294.49058   -1443.7846    485.19648    375.69899    433.53616    35521.095 
   68200    306.09524   -1478.5917    465.99409     374.2683    527.70429    35521.095 
   68300    289.53845   -1440.0273    476.34793    348.17045   -519.52883    35521.095 
   68400    299.00875   -1388.4289    489.58755     455.9168    385.99303    35521.095 
   68500     307.1944   -1393.2235    488.18645    486.80892    237.56678    35521.095 
   68600    304.52861   -1388.8306    488.03916    478.97631   -139.07268    35521.095 
   68700     305.5136   -1408.2329    489.22255    465.22022    165.20123    35521.095 
   68800    313.79129   -1460.7492    467.65962    428.64576    -108.5292    35521.095 
   68900    292.64884   -1439.9453    475.61115    361.60842   -75.817911    35521.095 
   69000    304.84455   -1428.7259    486.05657    438.52991    9.1544571    35521.095 
   69100    308.25494   -1420.8426    472.37435    448.18285   -72.634044    35521.095 
   69200    303.21873   -1417.5453    490.05043    446.33797   -25.554065    35521.095 
   69300    298.64691   -1436.0575    463.24195    380.30324    35.724272    35521.095 
   69400    295.96192   -1461.0564    483.21791    363.11503   -626.07929    35521.095 
   69500    300.67975   -1407.3716    476.62826    431.58594   -19.063073    35521.095 
   69600    306.17121   -1372.3337    492.43076    507.30713    33.692838    35521.095 
   69700    299.01887   -1420.2492    487.83128    422.38617    78.438119    35521.095 
   69800    306.24265   -1427.1038    470.50192    430.93187   -183.51863    35521.095 
   69900    302.78373   -1430.4796    500.62416    442.00658   -484.46088    35521.095 
   70000    303.66656   -1403.5781    483.08657    455.37039   -951.43542    35521.095 
   70100    291.61511   -1390.1018    477.60637    408.76338   -1101.1112    35521.095 
   70200    306.75445   -1390.3871    476.36377    475.82934   -1201.1374    35521.095 
   70300    293.87072   -1407.5584    455.94588     379.8661   -1058.5934    35521.095 
   70400    304.06532   -1457.0825    455.68067    376.26688   -1043.2787    35521.095 
   70500    291.10141    -1456.202    475.04274    337.77212   -911.61674    35521.095 
   70600    282.39709   -1427.1804    464.09871    316.41188   -257.75762    35521.095 
   70700    303.93405   -1385.2845    482.11821    473.90765     -589.367    35521.095 
   70800    312.17462   -1445.4048    436.78967    405.79541    418.50369    35521.095 
   70900    291.90825   -1456.0877    453.65932    320.15865   -51.870515    35521.095 
   71000    306.01554   -1467.8892    492.04456    410.66015    330.52537    35521.095 
   71100    297.65658   -1441.5442    487.89888    394.98637    872.80875    35521.095 
   71200    303.00263   -1393.7549    464.74612    443.84498    188.09802    35521.095 
   71300    294.35075   -1391.3747    498.16302    440.44185    51.385549    35521.095 
   71400    301.38165   -1385.6611    492.07906    471.92739    237.64711    35521.095 
   71500    287.87339   -1490.2277    491.75002    305.82806   -370.76098    35521.095 
   71600    276.47874   -1445.2939     475.3678    282.75242   -524.80834    35521.095 
   71700    297.44891    -1462.332    472.76261    358.12145    -576.9888    35521.095 
   71800    311.64083   -1460.8259    459.21574    410.38185    104.93276    35521.095 
   71900    285.78595   -1456.2542    497.07938    335.67309   -810.20418    35521.095 
   72000    299.10902   -1484.7796    453.73885    324.17176   -492.52623    35521.095 
   72100    308.56052   -1454.9818    478.94034     421.9942   -886.40951    35521.095 
   72200    301.75909   -1441.2935     472.5748    398.50078   -25.126275    35521.095 
   72300    305.33791   -1413.9323     466.5561    436.05836   -511.71982    35521.095 
   72400    297.71627   -1364.7182    485.06353    469.24751    87.526875    35521.095 
   72500    288.54881   -1402.6739    484.49033    389.18245   -97.727347    35521.095 
   72600    295.14307   -1444.5641    478.65176    371.33109     191.9277    35521.095 
   72700    301.33897   -1422.6241    455.41621     398.1081    757.82644    35521.095 
   72800    294.59597   -1449.9675    489.52517     374.3223    188.99027    35521.095 
   72900    304.45543    -1440.527    479.37505    418.28422    395.18843    35521.095 
   73000    302.04153   -1428.0478    496.71051     437.1619    172.95096    35521.095 
   73100    303.47667   -1427.4151    461.99373    409.58025    15.772742    35521.095 
   73200    290.99103   -1488.5667    484.14174    314.00628    8.0851109    35521.095 
   73300    304.80654   -1427.4781    480.46384    434.01276    480.21948    35521.095 
   73400    296.40446   -1451.6805    489.28046    380.55852    760.22471    35521.095 
   73500     287.8213    -1477.145    487.81694     314.7417     347.9223    35521.095 
   73600    293.64693   -1471.8425    471.47901    330.10122    700.39295    35521.095 
   73700    307.07907   -1461.4419     470.5711    400.45269    669.02092    35521.095 
   73800    287.98257   -1464.5027    481.50939    321.80713   -738.02718    35521.095 
   73900    296.53908    -1416.059    488.27489    415.78438   -844.49142    35521.095 
   74000    298.22417   -1427.7852    481.66789    405.08606    27.059645    35521.095 
   74100    289.91364   -1491.0312    489.67438    312.19301    330.90179    35521.095 
   74200     308.7812   -1514.7925    471.25036    355.49337    125.71355    35521.095 
   74300    291.48954   -1458.6702    462.62008    324.63983    376.55586    35521.095 
   74400    304.51402   -1402.5293    488.86513    466.03744    436.87009    35521.095 
   74500    296.50362   -1470.0042     496.4147    369.81836    393.54933    35521.095 
   74600     303.3673   -1461.7041    467.50136    380.30328    642.60132    35521.095 
   74700    298.55174   -1474.0394    452.32775    330.97592    177.17959    35521.095 
   74800    300.96083   -1428.9223    477.11097    411.79139   -171.06268    35521.095 
   74900    302.16093     -1447.82    466.53641    387.75663   -164.42565    35521.095 
   75000     297.9009   -1499.2029    453.82275    304.35861   -607.90296    35521.095 
   75100    307.88979   -1488.3368    495.74349    402.40339    165.18492    35521.095 
   75200    298.87945   -1434.3529    478.84112    398.66061    240.45185    35521.095 
   75300    297.17827   -1479.6051    472.10038    338.95987    390.63101    35521.095 
   75400    292.09742   -1417.1154    471.96531    378.29398    654.59998    35521.095 
   75500    303.53309   -1436.3118    496.13206    435.07748    554.42887    35521.095 
   75600    301.37901   -1399.7771     477.4721    443.19242    303.56163    35521.095 
   75700     296.9591   -1435.4196     489.6206    399.67256   -169.99516    35521.095 
   75800    300.42303   -1433.2295    477.81915    405.75573   0.20526584    35521.095 
   75900    305.93791   -1454.3878    505.08295    436.84817    449.86487    35521.095 
   76000    291.96797   -1449.2265    498.87903    372.51021      318.714    35521.095 
   76100    318.08476   -1445.4271    488.70143     484.4627    511.40799    35521.095 
   76200    298.68366   -1398.3133    452.00268    406.97469    263.44211    35521.095 
   76300    305.55053   -1393.4424    485.46869    476.42418    49.410854    35521.095 
   76400    306.05144   -1440.9092    486.68308    432.44136    17.020284    35521.095 
   76500    295.14331   -1433.5826    500.99845    404.66037   -827.85904    35521.095 
   76600    304.67581     -1414.76    476.03109    441.70579    140.05198    35521.095 
   76700    295.85989     -1435.54    452.31221    357.26346    184.34549    35521.095 
   76800    307.73342   -1407.0809    479.49795    466.70525    684.69229    35521.095 
   76900    298.13863    -1372.048    494.12729    472.89512    690.88403    35521.095 
   77000    307.70083   -1402.6452    506.95474    498.45011    573.24431    35521.095 
   77100    300.53289   -1390.9901    473.88934    444.56301    907.05308    35521.095 
   77200    297.24602   -1449.2001    512.41108    409.98256    588.89927    35521.095 
   77300    300.00998   -1431.1183     465.2588    393.43511    440.30299    35521.095 
   77400    298.19212   -1450.8382    493.86005    394.08002    356.77692    35521.095 
   77500    294.45332   -1439.0123    513.28097    408.38693    38.001212    35521.095 
   77600    295.86135   -1442.3683    495.77732    393.90681    308.24343    35521.095 
   77700    311.00887   -1437.8047    497.89565    469.21965    426.07288    35521.095 
   77800    292.91762    -1427.659    494.44378    393.94508    455.44172    35521.095 
   77900    287.98491   -1449.2631    480.87008    336.41806    469.04695    35521.095 
   78000    303.00825   -1483.6816    484.61613    373.81377    206.42538    35521.095 
   78100    296.47066   -1434.4299    488.35428    397.18292    -29.42619    35521.095 
   78200    295.85931   -1494.7827     502.8563    348.56224    101.96626    35521.095 
   78300    294.97184   -1438.8848    470.68871     368.2716    87.956864    35521.095 
   78400    303.09387    -1452.036    474.70817     395.9393    129.18682    35521.095 
   78500    295.04591   -1492.5293    498.40999    342.68396   -154.42627    35521.095 
   78600    298.63817   -1454.9221    486.68991      384.847   -291.92649    35521.095 
   78700    296.35344   -1488.4223    456.90738    311.21249    108.98972    35521.095 
   78800    302.59437   -1435.2372    492.18234    427.94924    788.12309    35521.095 
   78900    303.25733   -1469.4921    491.68128    396.19693    713.76918    35521.095 
   79000    300.09599   -1439.8085    518.06454    437.94032    959.11599    35521.095 
   79100    298.30047   -1473.8762    448.25584    325.92876    383.00561    35521.095 
   79200    309.29501    -1476.353    496.25054    421.26104   -643.01555    35521.095 
   79300    295.58493   -1469.6297    480.47438    350.09007   -407.39279    35521.095 
   79400    299.08433   -1470.0833    473.13429    358.15166   -263.06024    35521.095 
   79500    302.25425   -1441.0568    493.29817    421.70439   -144.48016    35521.095 
   79600    299.69939   -1451.5425    480.79387    387.13876   -178.09521    35521.095 
   79700    300.03667   -1465.3172    496.52425    390.62255   -0.9166942    35521.095 
   79800    298.01953   -1453.4605    479.55677    376.37249     327.3112    35521.095 
   79900    296.21589   -1436.7253    502.91573    408.29468    250.95046    35521.095 
   80000     296.3907   -1453.2498     473.6798    363.32626    9.5340859    35521.095 
   80100    301.13629   -1496.4248     481.9015    349.87437    204.57027    35521.095 
   80200    292.46468   -1516.5355    480.46665    289.03933    626.57396    35521.095 
   80300    290.82388   -1540.7537    488.07368    264.99395    589.25587    35521.095 
   80400    309.81325   -1538.0761    478.42588    344.06134    202.62925    35521.095 
   80500     295.5425   -1506.9424    486.02672     318.1375    22.332118    35521.095 
   80600    293.97232   -1521.0666    482.42274     293.2951    87.190316    35521.095 
   80700     305.1509   -1468.7578    485.03631    398.86576    13.115054    35521.095 
   80800    301.69832   -1492.6187    476.77618    351.10169   -183.26013    35521.095 
   80900    299.88131   -1465.6369     482.7324    375.80716   -600.40908    35521.095 
   81000    299.29635   -1461.2801    470.67906    365.46028   -600.19488    35521.095 
   81100    311.60289   -1511.7455    482.63598    382.71056   -157.90772    35521.095 
   81200    297.59005   -1478.6298    502.14133    371.84182    93.919955    35521.095 
   81300    290.81593   -1493.2325     492.9022    317.30766    136.47615    35521.095 
   81400    307.87184   -1498.2025    508.12699    404.83984   -309.62531    35521.095 
   81500    303.65405   -1510.5705     487.4404    352.67521    64.076229    35521.095 
   81600     300.0884   -1435.5842    503.58579    427.65151    237.47773    35521.095 
   81700     306.3661   -1479.5217    498.68051    407.25197    800.76556    35521.095 
   81800    294.04308   -1459.6485    481.12651    353.73765    764.10974    35521.095 
   81900    295.72965   -1465.2579    494.00517    368.64847    817.70811    35521.095 
   82000    300.45308   -1483.4144    486.12683    364.01461   -61.665243    35521.095 
   82100    293.46011   -1471.7081    483.30719    341.21729    276.51555    35521.095 
   82200    297.92618   -1472.1593    506.90999    384.60397   -115.40062    35521.095 
   82300     299.5139   -1516.7579    484.04018    324.32923   -118.22024    35521.095 
   82400    291.37426   -1517.7796    477.89443    280.28248    -211.7911    35521.095 
   82500    299.03084   -1513.7505    466.10455     307.2123   -328.84727    35521.095 
   82600    299.13753   -1554.0534    472.49949    273.78782     18.61835    35521.095 
   82700    305.24951   -1551.8457    484.24551    315.43377    260.49769    35521.095 
   82800    301.86488   -1545.6545     450.0112     272.0555   -223.52879    35521.095 
   82900    296.87877   -1545.1467    455.49256    255.45353   -467.28787    35521.095 
   83000    303.22483    -1516.356    470.46762    327.97214   -325.70542    35521.095 
   83100    289.81799   -1497.8805    497.82186    313.05777    -220.5797    35521.095 
   83200    296.22736   -1532.4555    490.12201    299.82274   -182.35133    35521.095 
   83300    290.94679   -1453.8992    495.35187    359.68349    597.74988    35521.095 
   83400    298.66091   -1463.5853    481.26799     370.8649    227.19825    35521.095 
   83500    303.68139   -1490.9087    485.67033    370.69076    -77.46832    35521.095 
   83600    305.15585   -1486.0052    493.50753    390.11199    113.94738    35521.095 
   83700    295.76494   -1510.7184    487.32082    316.66349    606.34221    35521.095 
   83800    302.81457   -1472.3993    490.20542    389.80787    170.42077    35521.095 
   83900    297.77896   -1491.3689     481.8816    339.69892    238.26872    35521.095 
   84000    301.60213   -1498.7313    505.77505    373.55214    466.58974    35521.095 
   84100    302.73986   -1488.3105    497.29251    380.64519   -255.58689    35521.095 
   84200      295.163   -1481.2605    500.79363    356.86689   -150.65574    35521.095 
   84300    292.28087   -1435.6151    480.91815    369.57833   -503.06436    35521.095 
   84400    304.02512   -1409.6811    501.00359    468.80901    376.39653    35521.095 
   84500    305.28208   -1433.6356    490.85412    440.40012    450.91505    35521.095 
   84600    311.76799   -1512.1822     444.4499    344.83588    1.1068674    35521.095 
   84700    293.34072   -1455.0244    487.28457    361.33743     378.0253    35521.095 
   84800    297.18827   -1488.0027    479.61008    338.11726    46.324124    35521.095 
   84900    301.61952   -1503.6035    462.89281    325.87646    422.96239    35521.095 
   85000    302.12982   -1455.6836    487.38415    400.59977   -153.61306    35521.095 
   85100    304.27343   -1457.1367    497.37974    418.85466   -301.64462    35521.095 
   85200    302.70496   -1507.5159    499.96611    363.95527    87.965665    35521.095 
   85300    297.91386   -1471.4725    502.77969    381.10469    -71.62286    35521.095 
   85400    292.95589    -1495.248    462.65243    294.73818    276.05376    35521.095 
   85500    302.70419   -1469.6755    503.25407    405.08014    362.75831    35521.095 
   85600    305.17937   -1510.4885    484.09318    356.32089    23.029242    35521.095 
   85700    300.77751   -1428.2605    484.15752    418.66918   -304.83804    35521.095 
   85800    297.77761   -1419.9955    507.80822    436.99285   -296.33425    35521.095 
   85900    292.80578    -1459.505    464.63516    331.78379     97.70663    35521.095 
   86000    302.00235   -1472.1464    482.51469    378.69001    348.74136    35521.095 
   86100    299.70758   -1462.8551     481.7043    376.77365     389.1355    35521.095 
   86200    297.65292   -1466.0673    487.39669    369.94455    724.31482    35521.095 
   86300    293.24126   -1473.1443    486.76174     342.2441    532.96384    35521.095 
   86400    302.87412   -1474.9178    475.23136    372.58508    917.63842    35521.095 
   86500    289.61629    -1512.163    474.08615     274.1257    149.40256    35521.095 
   86600    298.28621   -1434.3649    485.81873    402.93835    47.821205    35521.095 
   86700    292.14817   -1449.2486    496.79874    371.22422    412.57248    35521.095 
   86800    300.09503   -1459.4834    498.95485    399.15135    673.77763    35521.095 
   86900    305.73426   -1441.3147    470.33474    414.25042    396.63098    35521.095 
   87000    297.85339   -1483.3269    490.83692    357.03346     54.39436    35521.095 
   87100    310.67704    -1466.634    507.72857    448.71981   -440.89557    35521.095 
   87200    295.84458    -1511.124     468.5396    297.83745   -464.05907    35521.095 
   87300    295.10623   -1505.7589    487.77409    319.09176   -734.96714    35521.095 
   87400    308.59039   -1481.7077    478.45344    394.91679   -335.10545    35521.095 
   87500    300.82137   -1476.9609    472.16373    358.17373   -595.29789    35521.095 
   87600    296.53157   -1490.6714    463.38935    316.25248   -465.67358    35521.095 
   87700    302.00076   -1528.3275    462.02584    302.01281     78.46083    35521.095 
   87800    294.61204   -1528.7364    486.76647    292.86747    947.88075    35521.095 
   87900    300.35607    -1530.278    475.48226    306.06694    460.04449    35521.095 
   88000    300.48901    -1527.261    500.13688     334.3409   -230.04658    35521.095 
   88100    295.55311   -1543.8508    451.21715    246.46759   -279.29621    35521.095 
   88200    300.23085   -1497.5442    458.96774    321.71893    683.50685    35521.095 
   88300     304.3911    -1557.464    503.57413    325.25488    82.886962    35521.095 
   88400     303.7776   -1529.7238    489.80668    336.44794   -108.65614    35521.095 
   88500    299.95012   -1553.5388    477.48453    282.96911    343.92637    35521.095 
   88600     300.7403   -1533.9455    495.19912    323.85723    1169.2223    35521.095 
   88700     307.0587   -1524.9423    510.89619      377.185    274.46577    35521.095 
   88800    298.28795   -1484.7421    500.61773    367.36803    900.69821    35521.095 
   88900    295.17001   -1479.4073    498.17492    356.13317    951.20419    35521.095 
   89000    300.68247   -1505.6296    477.04178     333.7537    520.37905    35521.095 
   89100    299.17762   -1476.6474    457.85221    336.72811    28.276235    35521.095 
   89200    297.91378   -1465.0495    492.38266    377.13027   -595.00417    35521.095 
   89300    305.02171    -1466.058    476.86624    392.81018   -108.04423    35521.095 
   89400    295.72662   -1481.8064    478.19135    336.27239   -148.00203    35521.095 
   89500    298.44367   -1515.6289    488.91832    325.48732    90.873521    35521.095 
   89600    309.12718   -1497.8686    499.50679    402.24127   -171.52581    35521.095 
   89700    301.75116   -1471.1472    500.51557    396.55194   -122.15396    35521.095 
   89800    309.69999    -1495.711     507.2689    414.75632    315.49354    35521.095 
   89900    307.50303   -1487.9227    498.38759    403.70923    161.85374    35521.095 
   90000    300.76859   -1520.5736    490.77522    332.93337    519.16924    35521.095 
   90100    302.75934   -1534.7705    475.96652    312.94749    464.96928    35521.095 
   90200    300.71047   -1509.7182    494.73225    347.48248    388.16965    35521.095 
   90300    312.18814   -1501.6862    484.10381    396.88945    447.93355    35521.095 
   90400    289.54153   -1492.4795     513.4336    332.81795   -60.046657    35521.095 
   90500    300.96817   -1497.3451    514.19544    380.48628    228.52296    35521.095 
   90600    286.77342   -1511.9469    496.40826    283.78337    229.71427    35521.095 
   90700    307.44726   -1525.8385    504.01265    371.16584    262.42053    35521.095 
   90800    305.08751   -1519.3045     482.7634    345.75891   -12.769634    35521.095 
   90900      291.569   -1517.0985    494.03105    297.98245    317.26012    35521.095 
[...]
  984600    300.07412   -1495.5903    512.79005    376.78496    944.11227    35521.095 
  984700    304.01617   -1501.8361    500.42819    376.03803    360.54437    35521.095 
  984800    310.86781   -1486.1675     506.9167    429.23879    5.9770497    35521.095 
  984900    294.37357   -1483.0296      491.721    342.44838   -158.07701    35521.095 
  985000     307.8802   -1464.0727    519.40973    450.29026    164.68054    35521.095 
  985100    288.36968   -1574.9556     496.9517    228.55049   -216.20838    35521.095 
  985200    308.13133   -1530.9897     487.2268     352.3282    15.243233    35521.095 
  985300    294.24629   -1504.9957     504.2442    332.42881    27.341782    35521.095 
  985400    289.28744   -1493.7134    529.94978      346.949   -159.94411    35521.095 
  985500    302.46149   -1511.5541    498.54771    357.39555    62.335039    35521.095 
  985600    308.31439   -1498.6252    500.34163    398.63688    511.54246    35521.095 
  985700    296.66318   -1493.1527    486.83714    337.81527    365.17452    35521.095 
  985800    314.49119   -1520.0073    497.79411    402.69332    174.65401    35521.095 
  985900    296.34612   -1478.9697    503.71819     367.4427     377.2525    35521.095 
  986000    297.53091   -1502.4294    510.99477    356.62769   -384.17962    35521.095 
  986100    303.59205   -1513.3291    516.41172    378.60698   -776.05646    35521.095 
  986200    294.40089   -1490.7849    523.52175    366.61756   -487.29064    35521.095 
  986300    301.66046   -1495.6167    494.85176    366.00774   -73.921944    35521.095 
  986400    296.32224   -1504.3265    531.30299    369.56253   -244.43278    35521.095 
  986500    307.19795   -1494.0022    507.36229    405.22217    535.84478    35521.095 
  986600    300.16184   -1495.2482    528.46691     393.2014    375.85249    35521.095 
  986700    305.33996   -1456.4636    510.41261    437.39284   -266.33908    35521.095 
  986800    307.93654   -1450.7132    513.17914    457.67443   -270.40416    35521.095 
  986900    292.45916   -1463.7328    529.59918    390.94954   -531.19533    35521.095 
  987000    296.35095   -1500.0286    507.37443    350.06195   -681.69568    35521.095 
  987100    297.71912   -1472.1748    520.81445    397.55481    590.84416    35521.095 
  987200    311.29775   -1499.9792    503.70451    414.16284    70.519796    35521.095 
  987300    313.40888    -1505.431    517.45501    432.02671   -39.193109    35521.095 
  987400    313.29941   -1515.1454    510.56244    414.92375    556.81979    35521.095 
  987500    304.47174   -1516.3813    518.97074    382.09956    232.73397    35521.095 
  987600    296.97897   -1513.8767    498.02824    329.71321    427.95194    35521.095 
  987700     297.5869   -1508.0042    510.44456    350.75643    125.23873    35521.095 
  987800    301.04908   -1529.5803    509.36578    343.78804    365.48753    35521.095 
  987900    296.62524   -1529.7481    502.39216    316.60294   -145.54674    35521.095 
  988000    296.32371   -1484.6507    499.98545    357.92751    48.372129    35521.095 
  988100     301.5619   -1525.3988    514.46481    355.39205   -123.33576    35521.095 
  988200    304.21013   -1502.2483    496.54504    372.62156    688.11984    35521.095 
  988300    301.09613   -1503.6511    524.38655    384.95119     129.6993    35521.095 
  988400    301.18513   -1465.3067    521.01253    420.32486   -78.910705    35521.095 
  988500    293.10448   -1511.8835    486.42272    302.54619   -59.831958    35521.095 
  988600    296.98093   -1524.2157    508.77194    330.12671    164.08891    35521.095 
  988700    308.26171   -1542.0122    496.04204    350.71169     578.9413    35521.095 
  988800    294.04533   -1521.7755     497.1219    307.61613   -50.341486    35521.095 
  988900    301.81282   -1541.0253    492.07123    318.50888      1115.99    35521.095 
  989000    307.23083   -1535.8857    540.97711    397.10241    656.93486    35521.095 
  989100    297.13252   -1516.2041    501.38646    331.43966    271.02091    35521.095 
  989200    306.16807   -1539.8593    507.43593    354.77247    833.80808    35521.095 
  989300    304.14606   -1516.5541    519.13269    380.61302    291.36644    35521.095 
  989400    291.32221   -1525.6197    495.42842    289.74046   -414.58223    35521.095 
  989500    310.63501   -1543.3372     496.0515    360.14914   -396.76822    35521.095 
  989600    299.30534   -1542.5821    483.93927    297.45914   -265.68852    35521.095 
  989700    297.78853   -1587.8578     502.3844     263.7562   -76.864513    35521.095 
  989800    296.11276   -1516.6424    491.59797    316.59256    70.680884    35521.095 
  989900    296.52336   -1558.1205    506.31991    291.69677    753.85315    35521.095 
  990000    286.61487   -1544.8353     519.4691    273.23743   -247.02347    35521.095 
  990100     291.0685   -1574.0222    495.39286    240.15299    39.272582    35521.095 
  990200    309.41788   -1561.7105     518.3634    358.57315   -11.231101    35521.095 
  990300    303.44721   -1564.3455    498.05614    308.57871    386.00967    35521.095 
  990400     302.6041   -1558.2676    494.70179    307.48234     277.8465    35521.095 
  990500    308.55106   -1565.2196    503.27514    336.04834    482.12729    35521.095 
  990600    299.99365   -1553.0531    527.06329    333.23085    427.29756    35521.095 
  990700    297.64603   -1546.8661    467.69558    269.41348   -110.79716    35521.095 
  990800    297.27914   -1537.8133    497.41494    306.52323   -178.17491    35521.095 
  990900    296.09363   -1527.7867    530.88884     344.6524   -375.46907    35521.095 
  991000    289.54835   -1543.4898    504.43722    272.84211   -45.622419    35521.095 
  991100    303.33788   -1581.2058    502.88599    296.05293    164.94673    35521.095 
  991200    294.47949     -1527.16    506.49573    313.57258   -391.43408    35521.095 
  991300    298.03252   -1508.8778    500.47943    341.93669   -139.93876    35521.095 
  991400    317.29457   -1521.6804    516.48472    432.41254   -161.23352    35521.095 
  991500    300.09886   -1505.2102    489.69473    344.18185   -87.814793    35521.095 
  991600    298.96359   -1534.9849    517.34952    336.91815   -82.689288    35521.095 
  991700     296.8773   -1563.6296    502.96301    284.43437    632.37083    35521.095 
  991800    300.69116    -1528.613    508.22278    341.99073   -57.901535    35521.095 
  991900    306.22652   -1504.6037    497.20131    380.05833   -238.74499    35521.095 
  992000    289.99531   -1478.0606    500.30785    336.16704   -287.91154    35521.095 
  992100    298.29893   -1510.7553     491.8891    332.67598   -145.50978    35521.095 
  992200    296.86918    -1540.342    490.95455    295.67675   -670.82187    35521.095 
  992300    307.49443   -1509.6519    540.12953    423.68296   -499.30989    35521.095 
  992400    301.59775    -1503.347    492.64313    355.78467   -191.11056    35521.095 
  992500    296.81869   -1521.7551    507.08313    330.16343   -297.00919    35521.095 
  992600     303.5398    -1498.337    517.84728    394.79792   -179.75963    35521.095 
  992700    293.50061    -1514.159    519.73324    335.37601   -92.412622    35521.095 
  992800    299.85013    -1535.865    518.84681    341.55212   -346.80658    35521.095 
  992900    294.83004   -1523.0239    498.66553    311.46677   -609.87395    35521.095 
  993000    309.41914   -1496.9856    488.47712    393.41743     58.23233    35521.095 
  993100    301.58577    -1517.708    517.35009    366.07632   -374.63338    35521.095 
  993200    309.95296   -1513.2871    480.95311    372.01055    130.32247    35521.095 
  993300    297.23532   -1507.5417    492.23395    331.41529    109.99892    35521.095 
  993400    307.79818   -1510.5901    515.42826    399.41981    560.36475    35521.095 
  993500     295.9328   -1502.6627    514.51215    352.67102    468.83107    35521.095 
  993600    305.26334   -1497.6995    501.14245    386.53965    217.07656    35521.095 
  993700    301.83602   -1530.2723    512.57946    349.87525   -216.13134    35521.095 
  993800    300.40782    -1528.393    514.00746    346.71161   -152.49782    35521.095 
  993900    296.13642   -1556.3359    504.66286    290.07111   -268.34218    35521.095 
  994000    301.46484   -1474.4335    523.29842    414.75124   -123.79737    35521.095 
  994100    310.52048   -1514.5095    496.89403    389.30042   -1200.4951    35521.095 
  994200    299.13096   -1497.2584    530.13035    388.18384   -1101.6257    35521.095 
  994300    297.69966   -1550.3341    486.06272    284.55553   -447.69053    35521.095 
  994400    302.68535   -1549.1949    508.06229    330.28361   -243.41464    35521.095 
  994500    290.73855   -1510.2063    514.43364    321.51469     150.5701    35521.095 
  994600    302.72929   -1541.4791    522.84229    352.97851    133.33164    35521.095 
  994700    296.34659    -1573.015    507.47638    277.15779    511.62815    35521.095 
  994800    287.98011   -1554.6053    528.89158    279.07559    111.55542    35521.095 
  994900    292.47792   -1552.8941    508.44679    280.72076   -590.42869    35521.095 
  995000     291.9295   -1585.5917    484.70187    221.79349   -139.22305    35521.095 
  995100    301.67135    -1600.715    502.42884     268.5358     169.7972    35521.095 
  995200     293.6491   -1570.4888    501.89271    261.87842    534.03997    35521.095 
  995300    298.61843   -1535.8747    524.72401    341.83898    640.67081    35521.095 
  995400    293.43625   -1517.5779    505.18551    317.11772    205.37041    35521.095 
  995500    297.88382   -1540.1128     521.8354    331.38392   -462.35844    35521.095 
  995600    298.32644   -1564.2774    509.68387    297.07324    -294.0703    35521.095 
  995700     297.1273   -1511.6868    508.00081    342.54764    167.26231    35521.095 
  995800    298.69916   -1521.7204    511.85737     343.4925   -62.311281    35521.095 
  995900    300.34449   -1551.4798    514.78257    324.11301    -378.8595    35521.095 
  996000    314.55471    -1568.812    476.54115    332.92351    239.08746    35521.095 
  996100    292.72813   -1577.5176    489.11176    237.89592   -228.11536    35521.095 
  996200    302.82854   -1568.7102    512.41068    315.76554   -33.496515    35521.095 
  996300    301.52052   -1518.5427    503.25133    350.84719   -202.27554    35521.095 
  996400    300.65289   -1529.2625    517.87774    350.82276   -266.68393    35521.095 
  996500     283.0408   -1532.6164    507.74598    257.53969    307.72833    35521.095 
  996600    296.59406   -1504.1674    473.91656    313.56687    152.49992    35521.095 
  996700    289.30253   -1491.1077    516.58694     336.2602    722.46155    35521.095 
  996800    305.00984   -1518.6496    502.86109    366.15955    588.56438    35521.095 
  996900    297.57817    -1516.482    524.13302    355.92752    454.96803    35521.095 
  997000    294.04158   -1466.5025    521.33276    387.08303    314.05284    35521.095 
  997100    302.32886   -1507.9696    508.77536    370.60676    446.38077    35521.095 
  997200    298.24873   -1502.8059    505.48745    353.99625     518.2007    35521.095 
  997300    287.13602    -1480.431    492.52567    313.05955    349.11554    35521.095 
  997400    299.96819    -1520.704    502.90577    341.30701    224.08763    35521.095 
  997500    302.79351   -1533.5803     523.7558    362.08185   -137.12714    35521.095 
  997600    305.08574   -1538.1427    519.57226    363.72159    384.47944    35521.095 
  997700    303.26273   -1541.6655    483.93172    316.29841    409.43061    35521.095 
  997800    303.29571   -1521.4968    515.06181    367.74668    66.502542    35521.095 
  997900    301.72222   -1503.7923    504.16364    367.42378   -229.96347    35521.095 
  998000    297.97548   -1535.8697    500.68165    314.88863   -345.22723    35521.095 
  998100    297.54283   -1522.1716    534.31934    360.26412    466.05023    35521.095 
  998200    293.07829    -1505.564    530.72613     353.0504    759.40159    35521.095 
  998300    296.63212    -1510.816    499.34707    332.52116    196.82656    35521.095 
  998400    305.24684   -1495.4281    515.60702    403.20084    212.70942    35521.095 
  998500    309.14075   -1517.4532    499.55648    382.76791   -367.47035    35521.095 
  998600    295.01218   -1536.7813    509.88617    309.75529   -582.63578    35521.095 
  998700    311.44024   -1477.0575    513.56038    447.58605    -338.1012    35521.095 
  998800    292.36583   -1509.4641    513.47529    328.67143   -359.27818    35521.095 
  998900    311.20663   -1509.3845    519.71313     420.3534   -61.007003    35521.095 
  999000    300.28028   -1517.0966      526.934    370.35671    373.36486    35521.095 
  999100    295.07944   -1519.1681    508.42075    326.20776    326.78773    35521.095 
  999200     314.8676   -1551.2017       512.19    387.60034   -339.20789    35521.095 
  999300    301.18594   -1505.6377    492.28408    351.26908   -359.59881    35521.095 
  999400     295.9726    -1510.167    527.81407    358.64895   -399.75179    35521.095 
  999500    300.10847    -1549.609    504.58383    314.71567    266.19885    35521.095 
  999600    298.45613   -1522.1997    521.24564    351.30031    462.15355    35521.095 
  999700    306.80845   -1501.8281    532.65142    420.92063    425.53227    35521.095 
  999800    299.72375   -1492.0245    516.80873    382.78192    101.30571    35521.095 
  999900    296.12203   -1496.6724    502.33504    347.34161   -13.780682    35521.095 
 1000000    290.76839   -1512.5283    521.16967    326.06388   -728.75543    35521.095 
 1000100    297.87528   -1488.8952    498.84425    359.57164   -439.89551    35521.095 
 1000200    295.93576   -1488.8035    529.60626    381.63776    -413.9984    35521.095 
 1000300     294.2369   -1497.7277    509.20959    344.61961   -247.99586    35521.095 
 1000400    303.49791   -1515.4545    485.73777    345.38113    99.688909    35521.095 
 1000500    304.70402   -1515.7254    524.36493    389.20206    80.411192    35521.095 
 1000600    302.17897   -1535.2909     527.6961    361.52711   -152.46015    35521.095 
 1000700    293.35277   -1527.7397     514.8377     316.2299    182.85584    35521.095 
 1000800    307.91982   -1526.8219    515.40349    383.71428    197.22633    35521.095 
 1000900    299.89388   -1520.8949    513.44504    351.31865    403.98511    35521.095 
 1001000    299.40046   -1520.4805    504.59312    340.64558    555.87016    35521.095 
 1001100    292.25562   -1492.5147    516.40867    348.05488    226.41556    35521.095 
 1001200    308.51657   -1537.2905    514.93524    375.48128    -70.30167    35521.095 
 1001300    312.13436   -1487.9273    502.74596    429.04682    61.650405    35521.095 
 1001400     299.3673   -1503.5753    512.33795    365.14538    152.49011    35521.095 
 1001500     295.6048   -1500.1333    512.35559    351.55777    777.05957    35521.095 
 1001600    307.60728   -1521.9503    486.98474    358.75111    455.88888    35521.095 
 1001700    296.78081   -1485.6895    525.74256    384.71682    379.29648    35521.095 
 1001800    300.32524   -1496.4907    493.59208    357.82433   -67.796272    35521.095 
 1001900    304.02069   -1499.1663    506.31036    384.61053   -274.63148    35521.095 
 1002000    300.06255   -1467.4186    511.79993    403.91416   -43.072442    35521.095 
 1002100    295.69625   -1467.4568    488.52407    360.81706   -216.74956    35521.095 
 1002200    290.31225   -1500.6984    499.56074     314.2182    11.516932    35521.095 
 1002300    303.19312   -1505.3811    516.17162    384.50739   -193.76321    35521.095 
 1002400    295.82058   -1505.1974    523.67802    358.79372   -27.529698    35521.095 
 1002500    292.92886   -1516.0629    500.89444    312.04276    689.49883    35521.095 
 1002600    303.24647   -1489.7171    507.02606    391.26753     421.3693    35521.095 
 1002700     298.9127   -1506.0699     483.3615    331.61464    639.07917    35521.095 
 1002800    298.01925   -1510.4094    493.33698    333.20248    364.80655    35521.095 
 1002900     304.7027      -1502.9    492.45567    370.11217    708.63475    35521.095 
 1003000    294.89905   -1490.2571    489.99259    335.87337    620.92272    35521.095 
 1003100    302.08206   -1492.6256     519.5204     395.5777    696.47916    35521.095 
 1003200    307.18825   -1481.5164    512.05036    422.35209    222.80107    35521.095 
 1003300    293.57453   -1456.8959    504.55706    377.79787   -216.88611    35521.095 
 1003400    295.83214   -1432.5332    512.54123    420.37357   -21.573454    35521.095 
 1003500    299.33534   -1472.9518    519.70203    402.98816   -385.74239    35521.095 
 1003600    300.27766     -1477.07    502.53901     385.9764   -760.16678    35521.095 
 1003700    305.43754   -1446.0107    501.97522    439.85049   -29.048105    35521.095 
 1003800    300.69136   -1487.6686    475.88688    350.60013    177.16495    35521.095 
 1003900     289.6481   -1488.0059    494.25522    318.59596    749.18374    35521.095 
 1004000    303.84793   -1434.2703    517.87648    460.28982    339.99118    35521.095 
 1004100    296.66614   -1424.4888    492.27699     411.9324   -384.85522    35521.095 
 1004200    293.93091   -1450.3007    483.81521    365.26584   -343.02405    35521.095 
 1004300    291.75658   -1444.3704    522.09794    399.62736   -157.73533    35521.095 
 1004400     310.0966   -1465.5253    525.62907    465.09916    443.38948    35521.095 
 1004500    295.96184   -1514.5552    501.12101    327.51895    30.476424    35521.095 
 1004600     302.2346   -1491.2337    513.44156    391.58183    53.857033    35521.095 
 1004700    302.28311   -1460.5995    490.46713    399.46144   -542.93532    35521.095 
 1004800    303.44356   -1458.5664    508.12562     424.4108    242.01965    35521.095 
 1004900    293.23785   -1470.8743    492.11186    349.84877    392.25354    35521.095 
 1005000    296.55999   -1488.6426    504.10097     359.1216    523.91068    35521.095 
 1005100    310.89795   -1482.4875    491.95731    418.09594    987.06176    35521.095 
 1005200    302.86653   -1507.5525    505.00652    369.69116    1510.3553    35521.095 
 1005300     301.5399   -1497.8044    471.41735    339.83941    1095.0266    35521.095 
 1005400    308.71014   -1477.5371    512.83726    434.01374    925.51798    35521.095 
 1005500    294.64867   -1535.7926    467.61499    266.82579     491.0592    35521.095 
 1005600     303.2934   -1523.4623     503.0555    353.76442   -339.63482    35521.095 
 1005648    303.48239   -1498.9988    529.78712     405.8158    7.3746383    35521.095 
Loop time of 596.448 on 32 procs for 1000000 steps with 1521 atoms

Performance: 144.858 ns/day, 0.166 hours/ns, 1676.592 timesteps/s
100.0% CPU use with 32 MPI tasks x no OpenMP threads

MPI task timing breakdown:
Section |  min time  |  avg time  |  max time  |%varavg| %total
---------------------------------------------------------------
Pair    | 264.28     | 286.8      | 308.47     |  66.6 | 48.08
Bond    | 1.4405     | 1.6098     | 1.8064     |   6.8 |  0.27
Neigh   | 38.572     | 38.637     | 38.697     |   0.7 |  6.48
Comm    | 234.73     | 256.71     | 279.23     |  70.3 | 43.04
Output  | 0.39578    | 0.41265    | 0.83601    |  11.8 |  0.07
Modify  | 9.2618     | 9.4746     | 9.7002     |   4.0 |  1.59
Other   |            | 2.804      |            |       |  0.47

Nlocal:        47.5312 ave          76 max          23 min
Histogram: 5 3 2 3 2 6 4 3 2 2
Nghost:        2074.94 ave        2172 max        1987 min
Histogram: 1 6 4 2 4 1 7 3 2 2
Neighs:        5605.81 ave        9275 max        1749 min
Histogram: 1 5 3 5 1 4 2 5 4 2

Total # of neighbors = 179386
Ave neighs/atom = 117.93951
Ave special neighs/atom = 2.0447074
Neighbor list builds = 49775
Dangerous builds = 0
The system volume is 35521.0950552011
Lattice vectors
32.8722008610728 0 0
0 32.8722008610728 0
0 0 32.8722008610728
Total wall time: 0:10:02
