LAMMPS data file
 1520 atoms
 1022 bonds
 535 angles
 52 dihedrals
 11 impropers
 7 atom types
 8 bond types
 5 angle types
 4 dihedral types
 1 improper types
 0 15 xlo xhi
 0 15 ylo yhi
 0 15 zlo zhi
 0 0 0 xy xz yz

# Atom types
#
# 1 C_R
# 2 N_2
# 3 S_3
# 4 C_2
# 5 H_
# 6 H__HB
# 7 O_3

# Bond Coeffs
#
# 1 C_R*C_R
# 2 C_R*N_2
# 3 C_R*S_3
# 4 N_2*C_2
# 5 S_3*C_2
# 6 C_2*H_
# 7 C_R*H_
# 8 O_3*H__HB

# Angle Coeffs
#
# 1 C_R
# 2 N_2
# 3 S_3
# 4 C_2
# 5 O_3

# Dihedral Coeffs
#
# 1 D1
# 2 E1
# 3 I1
# 4 C1

# Inversion Coeffs
#
# 1 1

 Masses

 1 12.01
 2 14.01
 3 32.06
 4 12.01
 5 1.01
 6 1.01
 7 16

 Atoms # full

1 1 1 0 10.1424704212807 9.06649218501955 1.84608895181558
2 1 1 0 11.0592392653505 8.17202670507708 1.29108748178673
3 1 1 0 10.2382909798908 10.4550003043591 1.60022920912545
4 1 1 0 12.1041980537315 8.6285108903609 0.471686975824594
5 1 1 0 11.2982903747093 10.9276896958592 0.767781425689224
6 1 1 0 12.2209269235419 10.0073437561815 0.211960294319489
7 1 2 0 9.22413401322525 8.44006370460087 2.59450798588688
8 1 3 0 10.7619565194172 6.52237827849109 1.71665628660303
9 1 4 0 9.40487630664752 7.1060992175557 2.63167774067195
10 1 1 0 9.32075100329041 11.3785950319272 2.15171325290963
11 1 1 0 9.44859172849513 12.7531921388736 1.88431812850813
12 1 1 0 11.4118202203287 12.3129497664855 0.509421229680054
13 1 1 0 10.4912812864544 13.2191607597542 1.06529981975217
14 1 5 0 8.62962828838317 6.22634109003101 3.30481953645606
15 1 5 0 12.7730104302091 7.96922850343813 0.0677089574080121
16 1 5 0 12.9849979624811 10.3329323924905 -0.386189567638889
17 1 5 0 8.5540852730625 11.0617128251774 2.75069116163374
18 1 5 0 8.78156718428356 13.415668042116 2.28638169940524
19 1 5 0 12.1636439457892 12.6734738511488 -0.0841890551132423
20 1 5 0 10.5804232364653 14.2195756390201 0.873600701101178
21 2 6 0 13.4054500381183 7.79488430283032 6.93811453180388
22 2 7 0 14.3654500381183 7.79488430283032 6.93811453180388
23 2 6 0 14.6054500381183 6.86488430283032 6.93811453180388
24 3 6 0 13.534459933145 6.83780677541159 13.1536495231558
25 3 7 0 14.494459933145 6.83780677541159 13.1536495231558
26 3 6 0 14.734459933145 5.90780677541159 13.1536495231558
27 4 6 0 8.16518587918952 2.87068688700907 11.135615974199
28 4 7 0 9.12518587918952 2.87068688700907 11.135615974199
29 4 6 0 9.36518587918952 1.94068688700907 11.135615974199
30 5 6 0 12.2689231792185 14.4498882854264 12.3502600647043
31 5 7 0 13.2289231792185 14.4498882854264 12.3502600647043
32 5 6 0 13.4689231792185 13.5198882854264 12.3502600647043
33 6 6 0 10.5962307289895 15.0695122701023 11.2231957912445
34 6 7 0 11.5562307289895 15.0695122701023 11.2231957912445
35 6 6 0 11.7962307289895 14.1395122701023 11.2231957912445
36 7 6 0 13.9159482966363 15.0407000262663 12.2133144875988
37 7 7 0 14.8759482966363 15.0407000262663 12.2133144875988
38 7 6 0 15.1159482966363 14.1107000262663 12.2133144875988
39 8 6 0 -0.191722233574837 3.06063267326914 5.95483106095344
40 8 7 0 0.768277766425163 3.06063267326914 5.95483106095344
41 8 6 0 1.00827776642516 2.13063267326914 5.95483106095344
42 9 6 0 13.1352385603543 2.62696949107572 6.56993013806641
43 9 7 0 14.0952385603543 2.62696949107572 6.56993013806641
44 9 6 0 14.3352385603543 1.69696949107572 6.56993013806641
45 10 6 0 12.5484364949819 11.7612043481227 8.30987149849534
46 10 7 0 13.5084364949819 11.7612043481227 8.30987149849534
47 10 6 0 13.7484364949819 10.8312043481227 8.30987149849534
48 11 6 0 5.52807291431353 11.171910894746 4.04581977752969
49 11 7 0 6.48807291431353 11.171910894746 4.04581977752969
50 11 6 0 6.72807291431353 10.241910894746 4.04581977752969
51 12 6 0 3.37696072689258 15.239594747955 7.13659848086536
52 12 7 0 4.33696072689258 15.239594747955 7.13659848086536
53 12 6 0 4.57696072689258 14.309594747955 7.13659848086536
54 13 6 0 12.6934261042345 12.5222525214218 11.5419150260277
55 13 7 0 13.6534261042345 12.5222525214218 11.5419150260277
56 13 6 0 13.8934261042345 11.5922525214218 11.5419150260277
57 14 6 0 1.06873652243055 5.51743427681737 4.98075783485547
58 14 7 0 2.02873652243055 5.51743427681737 4.98075783485547
59 14 6 0 2.26873652243055 4.58743427681737 4.98075783485547
60 15 6 0 13.7022232396714 11.5189929322246 12.0300566742662
61 15 7 0 14.6622232396714 11.5189929322246 12.0300566742662
62 15 6 0 14.9022232396714 10.5889929322246 12.0300566742662
63 16 6 0 12.2978786732722 7.99155566882342 1.64856770541519
64 16 7 0 13.2578786732722 7.99155566882342 1.64856770541519
65 16 6 0 13.4978786732722 7.06155566882342 1.64856770541519
66 17 6 0 12.4280733607896 11.6998442138452 2.32282968121581
67 17 7 0 13.3880733607896 11.6998442138452 2.32282968121581
68 17 6 0 13.6280733607896 10.7698442138452 2.32282968121581
69 18 6 0 3.46909564381465 4.81485162436962 1.00105934310704
70 18 7 0 4.42909564381465 4.81485162436962 1.00105934310704
71 18 6 0 4.66909564381465 3.88485162436962 1.00105934310704
72 19 6 0 1.94770981717855 0.45426055829972 4.46866758400574
73 19 7 0 2.90770981717855 0.45426055829972 4.46866758400574
74 19 6 0 3.14770981717855 -0.47573944170028 4.46866758400574
75 20 6 0 -0.565214711967856 9.32110325357877 8.36830183630809
76 20 7 0 0.394785288032144 9.32110325357877 8.36830183630809
77 20 6 0 0.634785288032144 8.39110325357877 8.36830183630809
78 21 6 0 14.0210575125832 14.5840233161021 14.573668318335
79 21 7 0 14.9810575125832 14.5840233161021 14.573668318335
80 21 6 0 15.2210575125832 13.6540233161021 14.573668318335
81 22 6 0 6.22517335854471 12.2186581445299 10.4937175533269
82 22 7 0 7.18517335854471 12.2186581445299 10.4937175533269
83 22 6 0 7.42517335854471 11.2886581445299 10.4937175533269
84 23 6 0 10.6711665149499 12.0373871426005 14.4525307032745
85 23 7 0 11.6311665149499 12.0373871426005 14.4525307032745
86 23 6 0 11.8711665149499 11.1073871426005 14.4525307032745
87 24 6 0 3.68862581483088 7.29663238901645 8.35811157943681
88 24 7 0 4.64862581483088 7.29663238901645 8.35811157943681
89 24 6 0 4.88862581483088 6.36663238901645 8.35811157943681
90 25 6 0 13.8991487764008 9.45324336335994 3.54053372866474
91 25 7 0 14.8591487764008 9.45324336335994 3.54053372866474
92 25 6 0 15.0991487764008 8.52324336335994 3.54053372866474
93 26 6 0 7.91724565599114 4.0312622188963 7.87249129498377
94 26 7 0 8.87724565599114 4.0312622188963 7.87249129498377
95 26 6 0 9.11724565599114 3.1012622188963 7.87249129498377
96 27 6 0 -0.0893465588148683 5.33156835398637 10.2414335869253
97 27 7 0 0.870653441185132 5.33156835398637 10.2414335869253
98 27 6 0 1.11065344118513 4.40156835398637 10.2414335869253
99 28 6 0 4.12103855327703 12.6974750442337 14.4471878162585
100 28 7 0 5.08103855327703 12.6974750442337 14.4471878162585
101 28 6 0 5.32103855327703 11.7674750442337 14.4471878162585
102 29 6 0 1.8860371636413 1.73474254942499 3.73129300656728
103 29 7 0 2.8460371636413 1.73474254942499 3.73129300656728
104 29 6 0 3.0860371636413 0.804742549424991 3.73129300656728
105 30 6 0 12.7436231709737 2.57482039084658 2.2759495920036
106 30 7 0 13.7036231709737 2.57482039084658 2.2759495920036
107 30 6 0 13.9436231709737 1.64482039084658 2.2759495920036
108 31 6 0 -0.0167674811370671 0.386619046740234 12.9920730809681
109 31 7 0 0.943232518862933 0.386619046740234 12.9920730809681
110 31 6 0 1.18323251886293 -0.543380953259766 12.9920730809681
111 32 6 0 12.0896835594624 8.60543384839781 12.1199044387322
112 32 7 0 13.0496835594624 8.60543384839781 12.1199044387322
113 32 6 0 13.2896835594624 7.67543384839781 12.1199044387322
114 33 6 0 6.47245394342579 13.2913276208006 0.207992669893429
115 33 7 0 7.43245394342579 13.2913276208006 0.207992669893429
116 33 6 0 7.67245394342579 12.3613276208006 0.207992669893429
117 34 6 0 12.2544697012939 5.03050956916064 12.3534290108364
118 34 7 0 13.2144697012939 5.03050956916064 12.3534290108364
119 34 6 0 13.4544697012939 4.10050956916064 12.3534290108364
120 35 6 0 3.62287848765962 11.6532208518498 11.2811836588662
121 35 7 0 4.58287848765962 11.6532208518498 11.2811836588662
122 35 6 0 4.82287848765962 10.7232208518498 11.2811836588662
123 36 6 0 4.7601277583465 15.0165935295541 7.30149514507502
124 36 7 0 5.7201277583465 15.0165935295541 7.30149514507502
125 36 6 0 5.9601277583465 14.0865935295541 7.30149514507502
126 37 6 0 2.24333652106114 10.5652063739859 3.62982722581364
127 37 7 0 3.20333652106114 10.5652063739859 3.62982722581364
128 37 6 0 3.44333652106114 9.63520637398586 3.62982722581364
129 38 6 0 7.48546804578044 7.29877005721442 8.74345480464399
130 38 7 0 8.44546804578044 7.29877005721442 8.74345480464399
131 38 6 0 8.68546804578044 6.36877005721442 8.74345480464399
132 39 6 0 0.350401797769591 0.450318430494517 11.8875133723486
133 39 7 0 1.31040179776959 0.450318430494517 11.8875133723486
134 39 6 0 1.55040179776959 -0.479681569505483 11.8875133723486
135 40 6 0 12.876419262467 8.5514276083 3.34063704824075
136 40 7 0 13.836419262467 8.5514276083 3.34063704824075
137 40 6 0 14.076419262467 7.6214276083 3.34063704824075
138 41 6 0 12.9699194307625 0.887072935411707 0.630382038652897
139 41 7 0 13.9299194307625 0.887072935411707 0.630382038652897
140 41 6 0 14.1699194307625 -0.0429270645882935 0.630382038652897
141 42 6 0 8.79871262979694 1.38375881983899 0.427123754052445
142 42 7 0 9.75871262979694 1.38375881983899 0.427123754052445
143 42 6 0 9.99871262979694 0.453758819838986 0.427123754052445
144 43 6 0 4.56811275959015 1.82846153428778 13.2566382293589
145 43 7 0 5.52811275959015 1.82846153428778 13.2566382293589
146 43 6 0 5.76811275959015 0.89846153428778 13.2566382293589
147 44 6 0 5.57668560926802 2.34005757764913 13.1020510790404
148 44 7 0 6.53668560926802 2.34005757764913 13.1020510790404
149 44 6 0 6.77668560926802 1.41005757764913 13.1020510790404
150 45 6 0 -0.416061888244003 4.03397096711211 12.8669430606533
151 45 7 0 0.543938111755997 4.03397096711211 12.8669430606533
152 45 6 0 0.783938111755997 3.10397096711211 12.8669430606533
153 46 6 0 -0.100460777319968 0.390712642520666 11.5847878111526
154 46 7 0 0.859539222680032 0.390712642520666 11.5847878111526
155 46 6 0 1.09953922268003 -0.539287357479334 11.5847878111526
156 47 6 0 3.31261401224881 5.9955328893289 14.4573574711103
157 47 7 0 4.27261401224881 5.9955328893289 14.4573574711103
158 47 6 0 4.51261401224881 5.0655328893289 14.4573574711103
159 48 6 0 8.70133551696315 7.69908800296485 8.46606287872419
160 48 7 0 9.66133551696315 7.69908800296485 8.46606287872419
161 48 6 0 9.90133551696315 6.76908800296485 8.46606287872419
162 49 6 0 11.1793652053177 13.5973361569364 8.52891289279796
163 49 7 0 12.1393652053177 13.5973361569364 8.52891289279796
164 49 6 0 12.3793652053177 12.6673361569364 8.52891289279796
165 50 6 0 2.11992813318037 13.983553946428 0.141441581072286
166 50 7 0 3.07992813318037 13.983553946428 0.141441581072286
167 50 6 0 3.31992813318037 13.053553946428 0.141441581072286
168 51 6 0 6.89703163851053 2.10499554098584 11.5223822020926
169 51 7 0 7.85703163851053 2.10499554098584 11.5223822020926
170 51 6 0 8.09703163851053 1.17499554098584 11.5223822020926
171 52 6 0 8.2506134959124 14.7277266105544 2.1044500800781
172 52 7 0 9.2106134959124 14.7277266105544 2.1044500800781
173 52 6 0 9.4506134959124 13.7977266105544 2.1044500800781
174 53 6 0 10.5119242756348 6.56074017560109 6.46810882142745
175 53 7 0 11.4719242756348 6.56074017560109 6.46810882142745
176 53 6 0 11.7119242756348 5.63074017560109 6.46810882142745
177 54 6 0 10.5369045159034 13.7325228545256 2.75268007535487
178 54 7 0 11.4969045159034 13.7325228545256 2.75268007535487
179 54 6 0 11.7369045159034 12.8025228545256 2.75268007535487
180 55 6 0 5.9120705472026 2.91382564389147 8.457135502249
181 55 7 0 6.8720705472026 2.91382564389147 8.457135502249
182 55 6 0 7.1120705472026 1.98382564389147 8.457135502249
183 56 6 0 -0.374331612400711 4.71351479570381 10.9964782954194
184 56 7 0 0.585668387599289 4.71351479570381 10.9964782954194
185 56 6 0 0.825668387599289 3.78351479570381 10.9964782954194
186 57 6 0 14.2009791468456 2.13169382344 0.193227084819227
187 57 7 0 15.1609791468456 2.13169382344 0.193227084819227
188 57 6 0 15.4009791468456 1.20169382344 0.193227084819227
189 58 6 0 11.3431634804886 12.786320671849 11.7168349132407
190 58 7 0 12.3031634804886 12.786320671849 11.7168349132407
191 58 6 0 12.5431634804886 11.856320671849 11.7168349132407
192 59 6 0 8.34040616682731 13.8757844995148 5.27950296294875
193 59 7 0 9.30040616682731 13.8757844995148 5.27950296294875
194 59 6 0 9.54040616682731 12.9457844995148 5.27950296294875
195 60 6 0 7.11721295418218 11.5210854045022 4.56436200183816
196 60 7 0 8.07721295418218 11.5210854045022 4.56436200183816
197 60 6 0 8.31721295418218 10.5910854045022 4.56436200183816
198 61 6 0 -0.268918255604804 6.17464968277141 12.8030454693362
199 61 7 0 0.691081744395196 6.17464968277141 12.8030454693362
200 61 6 0 0.931081744395196 5.24464968277141 12.8030454693362
201 62 6 0 4.20422540439293 7.49281064066105 10.3245592745952
202 62 7 0 5.16422540439293 7.49281064066105 10.3245592745952
203 62 6 0 5.40422540439293 6.56281064066105 10.3245592745952
204 63 6 0 1.39614933446981 4.90646253264509 13.4357795224059
205 63 7 0 2.35614933446981 4.90646253264509 13.4357795224059
206 63 6 0 2.59614933446981 3.97646253264509 13.4357795224059
207 64 6 0 0.308775838203728 4.19256313744932 3.15669244620949
208 64 7 0 1.26877583820373 4.19256313744932 3.15669244620949
209 64 6 0 1.50877583820373 3.26256313744932 3.15669244620949
210 65 6 0 5.65030281708576 5.75165137223899 0.105735822580755
211 65 7 0 6.61030281708576 5.75165137223899 0.105735822580755
212 65 6 0 6.85030281708576 4.82165137223899 0.105735822580755
213 66 6 0 12.5718565662112 7.08006773534231 3.72184805106372
214 66 7 0 13.5318565662112 7.08006773534231 3.72184805106372
215 66 6 0 13.7718565662112 6.15006773534231 3.72184805106372
216 67 6 0 12.3062840178329 10.2639220985025 14.4500630290713
217 67 7 0 13.2662840178329 10.2639220985025 14.4500630290713
218 67 6 0 13.506284017833 9.33392209850252 14.4500630290713
219 68 6 0 11.4790975714289 5.98702261731029 10.6049481919035
220 68 7 0 12.4390975714289 5.98702261731029 10.6049481919035
221 68 6 0 12.6790975714289 5.05702261731029 10.6049481919035
222 69 6 0 4.23100566884503 1.31992992520332 2.96981192543171
223 69 7 0 5.19100566884503 1.31992992520332 2.96981192543171
224 69 6 0 5.43100566884503 0.389929925203323 2.96981192543171
225 70 6 0 4.23947359129787 8.6605567710381 2.51212055445649
226 70 7 0 5.19947359129787 8.6605567710381 2.51212055445649
227 70 6 0 5.43947359129787 7.7305567710381 2.51212055445649
228 71 6 0 2.29344636362046 14.4259825213254 11.1711959482636
229 71 7 0 3.25344636362046 14.4259825213254 11.1711959482636
230 71 6 0 3.49344636362046 13.4959825213254 11.1711959482636
231 72 6 0 7.30951491787098 13.1236850940064 0.797740146517754
232 72 7 0 8.26951491787098 13.1236850940064 0.797740146517754
233 72 6 0 8.50951491787098 12.1936850940064 0.797740146517754
234 73 6 0 7.15799215293489 1.84805119800381 3.93098690081388
235 73 7 0 8.11799215293489 1.84805119800381 3.93098690081388
236 73 6 0 8.35799215293489 0.918051198003814 3.93098690081388
237 74 6 0 9.7186143560987 7.51408194465563 14.2553917737678
238 74 7 0 10.6786143560987 7.51408194465563 14.2553917737678
239 74 6 0 10.9186143560987 6.58408194465563 14.2553917737678
240 75 6 0 3.55274104091339 7.16526401153766 5.10904250666499
241 75 7 0 4.51274104091339 7.16526401153766 5.10904250666499
242 75 6 0 4.75274104091339 6.23526401153766 5.10904250666499
243 76 6 0 4.277225421248 4.15608803200535 10.2337273175362
244 76 7 0 5.237225421248 4.15608803200535 10.2337273175362
245 76 6 0 5.477225421248 3.22608803200535 10.2337273175362
246 77 6 0 13.1603612999618 15.0374832404219 9.85544706811197
247 77 7 0 14.1203612999618 15.0374832404219 9.85544706811197
248 77 6 0 14.3603612999618 14.1074832404219 9.85544706811197
249 78 6 0 14.2443752316479 2.54178803687915 7.71660106256604
250 78 7 0 15.2043752316479 2.54178803687915 7.71660106256604
251 78 6 0 15.4443752316479 1.61178803687915 7.71660106256604
252 79 6 0 9.62463751944713 1.09875385574065 12.3533931118436
253 79 7 0 10.5846375194471 1.09875385574065 12.3533931118436
254 79 6 0 10.8246375194471 0.168753855740651 12.3533931118436
255 80 6 0 9.83827853037044 7.08830438362434 3.37966147810221
256 80 7 0 10.7982785303704 7.08830438362434 3.37966147810221
257 80 6 0 11.0382785303704 6.15830438362434 3.37966147810221
258 81 6 0 9.00910940763541 0.680252261636779 10.4397690191399
259 81 7 0 9.96910940763541 0.680252261636779 10.4397690191399
260 81 6 0 10.2091094076354 -0.249747738363221 10.4397690191399
261 82 6 0 0.920195015352219 6.18358448421583 2.07381218438968
262 82 7 0 1.88019501535222 6.18358448421583 2.07381218438968
263 82 6 0 2.12019501535222 5.25358448421583 2.07381218438968
264 83 6 0 8.76455629055388 12.4106741246674 11.4066698192619
265 83 7 0 9.72455629055388 12.4106741246674 11.4066698192619
266 83 6 0 9.96455629055388 11.4806741246674 11.4066698192619
267 84 6 0 5.56177298465744 1.62249421858229 5.13986758072861
268 84 7 0 6.52177298465744 1.62249421858229 5.13986758072861
269 84 6 0 6.76177298465744 0.692494218582287 5.13986758072861
270 85 6 0 11.1932462306879 13.5260068454687 3.29949858016334
271 85 7 0 12.1532462306879 13.5260068454687 3.29949858016334
272 85 6 0 12.3932462306879 12.5960068454687 3.29949858016334
273 86 6 0 3.96937337980606 4.42214990890585 12.409742512973
274 86 7 0 4.92937337980606 4.42214990890585 12.409742512973
275 86 6 0 5.16937337980606 3.49214990890585 12.409742512973
276 87 6 0 6.4983660173323 12.974535647491 4.9588418926578
277 87 7 0 7.4583660173323 12.974535647491 4.9588418926578
278 87 6 0 7.6983660173323 12.044535647491 4.9588418926578
279 88 6 0 12.0422670284472 3.68343478575349 1.25067112036049
280 88 7 0 13.0022670284472 3.68343478575349 1.25067112036049
281 88 6 0 13.2422670284472 2.75343478575349 1.25067112036049
282 89 6 0 1.98008044783026 14.7776602235995 2.29545830748975
283 89 7 0 2.94008044783026 14.7776602235995 2.29545830748975
284 89 6 0 3.18008044783026 13.8476602235995 2.29545830748975
285 90 6 0 6.13935069574043 12.9856875985302 0.915774805471301
286 90 7 0 7.09935069574043 12.9856875985302 0.915774805471301
287 90 6 0 7.33935069574043 12.0556875985302 0.915774805471301
288 91 6 0 7.33943446001038 15.1429656361602 0.179640382993966
289 91 7 0 8.29943446001038 15.1429656361602 0.179640382993966
290 91 6 0 8.53943446001038 14.2129656361602 0.179640382993966
291 92 6 0 -0.673928289469331 10.2445877720043 11.1327543470543
292 92 7 0 0.286071710530668 10.2445877720043 11.1327543470543
293 92 6 0 0.526071710530668 9.31458777200431 11.1327543470543
294 93 6 0 9.94619117511436 5.76377621776424 0.425438792444766
295 93 7 0 10.9061911751144 5.76377621776424 0.425438792444766
296 93 6 0 11.1461911751144 4.83377621776424 0.425438792444766
297 94 6 0 14.1608448377531 11.0503657096438 1.32966454373673
298 94 7 0 15.1208448377531 11.0503657096438 1.32966454373673
299 94 6 0 15.3608448377531 10.1203657096438 1.32966454373673
300 95 6 0 0.854885639129207 2.89837306406349 12.0324954797979
301 95 7 0 1.81488563912921 2.89837306406349 12.0324954797979
302 95 6 0 2.05488563912921 1.96837306406349 12.0324954797979
303 96 6 0 7.90024564761668 14.4026054213196 14.606374015566
304 96 7 0 8.86024564761668 14.4026054213196 14.606374015566
305 96 6 0 9.10024564761668 13.4726054213196 14.606374015566
306 97 6 0 9.98190016413107 0.887415737789124 13.955914832186
307 97 7 0 10.9419001641311 0.887415737789124 13.955914832186
308 97 6 0 11.1819001641311 -0.0425842622108758 13.955914832186
309 98 6 0 7.84274371035397 13.4817006640974 0.549473077990115
310 98 7 0 8.80274371035397 13.4817006640974 0.549473077990115
311 98 6 0 9.04274371035397 12.5517006640974 0.549473077990115
312 99 6 0 9.84957597378641 2.92425596196204 3.59467072994448
313 99 7 0 10.8095759737864 2.92425596196204 3.59467072994448
314 99 6 0 11.0495759737864 1.99425596196204 3.59467072994448
315 100 6 0 12.0918844900746 11.7299447946157 2.22707413486205
316 100 7 0 13.0518844900746 11.7299447946157 2.22707413486205
317 100 6 0 13.2918844900746 10.7999447946157 2.22707413486205
318 101 6 0 1.1775447351113 13.6489112679288 1.61260590422899
319 101 7 0 2.1375447351113 13.6489112679288 1.61260590422899
320 101 6 0 2.3775447351113 12.7189112679288 1.61260590422899
321 102 6 0 4.62428440500051 8.53339520440437 0.0394918222445995
322 102 7 0 5.58428440500051 8.53339520440437 0.0394918222445995
323 102 6 0 5.82428440500051 7.60339520440437 0.0394918222445995
324 103 6 0 8.11433747570962 1.75865218317136 11.3928800623398
325 103 7 0 9.07433747570962 1.75865218317136 11.3928800623398
326 103 6 0 9.31433747570962 0.828652183171362 11.3928800623398
327 104 6 0 2.43958182094619 11.0530220360402 4.37129594036378
328 104 7 0 3.39958182094619 11.0530220360402 4.37129594036378
329 104 6 0 3.63958182094619 10.1230220360402 4.37129594036378
330 105 6 0 3.74956033352762 13.186668816898 6.90090063144453
331 105 7 0 4.70956033352762 13.186668816898 6.90090063144453
332 105 6 0 4.94956033352763 12.256668816898 6.90090063144453
333 106 6 0 2.87645214979537 9.38522200839594 2.44313633185811
334 106 7 0 3.83645214979537 9.38522200839594 2.44313633185811
335 106 6 0 4.07645214979537 8.45522200839594 2.44313633185811
336 107 6 0 7.11776221331209 7.01012756367214 14.4772178807762
337 107 7 0 8.07776221331209 7.01012756367214 14.4772178807762
338 107 6 0 8.31776221331209 6.08012756367214 14.4772178807762
339 108 6 0 11.9025491717923 14.2279588365369 4.29469827096909
340 108 7 0 12.8625491717923 14.2279588365369 4.29469827096909
341 108 6 0 13.1025491717923 13.2979588365369 4.29469827096909
342 109 6 0 9.2119008376915 8.25378481223248 2.04322161152959
343 109 7 0 10.1719008376915 8.25378481223248 2.04322161152959
344 109 6 0 10.4119008376915 7.32378481223248 2.04322161152959
345 110 6 0 12.8170710049756 14.6883658742905 9.44084971561097
346 110 7 0 13.7770710049756 14.6883658742905 9.44084971561097
347 110 6 0 14.0170710049756 13.7583658742905 9.44084971561097
348 111 6 0 9.93897080115974 15.2900964968745 11.4834957278799
349 111 7 0 10.8989708011597 15.2900964968745 11.4834957278799
350 111 6 0 11.1389708011597 14.3600964968745 11.4834957278799
351 112 6 0 4.09361706624739 2.96266485977918 12.5928420480341
352 112 7 0 5.05361706624739 2.96266485977918 12.5928420480341
353 112 6 0 5.29361706624739 2.03266485977918 12.5928420480341
354 113 6 0 1.36635225542821 2.43940382305533 12.2313119529281
355 113 7 0 2.32635225542821 2.43940382305533 12.2313119529281
356 113 6 0 2.56635225542821 1.50940382305533 12.2313119529281
357 114 6 0 9.92488610601984 2.85206874873489 7.07729839487001
358 114 7 0 10.8848861060198 2.85206874873489 7.07729839487001
359 114 6 0 11.1248861060198 1.92206874873489 7.07729839487001
360 115 6 0 10.0945842631347 11.2958157287817 7.63405259116553
361 115 7 0 11.0545842631347 11.2958157287817 7.63405259116553
362 115 6 0 11.2945842631347 10.3658157287817 7.63405259116553
363 116 6 0 8.88323200444691 14.0308601401653 14.559161325451
364 116 7 0 9.84323200444691 14.0308601401653 14.559161325451
365 116 6 0 10.0832320044469 13.1008601401653 14.559161325451
366 117 6 0 6.15005803221837 3.36384952574968 8.29855102230795
367 117 7 0 7.11005803221837 3.36384952574968 8.29855102230795
368 117 6 0 7.35005803221837 2.43384952574968 8.29855102230795
369 118 6 0 11.6033882873319 10.9088478811923 7.14615328819491
370 118 7 0 12.5633882873319 10.9088478811923 7.14615328819491
371 118 6 0 12.8033882873319 9.97884788119234 7.14615328819491
372 119 6 0 5.54114661223255 9.26201962324791 2.7799519628752
373 119 7 0 6.50114661223255 9.26201962324791 2.7799519628752
374 119 6 0 6.74114661223255 8.33201962324791 2.7799519628752
375 120 6 0 6.83075147375464 14.5292818468902 12.4340262869373
376 120 7 0 7.79075147375464 14.5292818468902 12.4340262869373
377 120 6 0 8.03075147375464 13.5992818468902 12.4340262869373
378 121 6 0 4.71097032699734 12.1298584252968 0.15134347602725
379 121 7 0 5.67097032699734 12.1298584252968 0.15134347602725
380 121 6 0 5.91097032699734 11.1998584252968 0.15134347602725
381 122 6 0 1.05911903243512 12.8071324834041 10.4297782864887
382 122 7 0 2.01911903243512 12.8071324834041 10.4297782864887
383 122 6 0 2.25911903243512 11.8771324834041 10.4297782864887
384 123 6 0 7.99817379025742 5.60917274368927 9.20264984364621
385 123 7 0 8.95817379025742 5.60917274368927 9.20264984364621
386 123 6 0 9.19817379025742 4.67917274368927 9.20264984364621
387 124 6 0 8.44098843561485 10.247922648387 0.0266463670413941
388 124 7 0 9.40098843561485 10.247922648387 0.0266463670413941
389 124 6 0 9.64098843561485 9.31792264838703 0.0266463670413941
390 125 6 0 7.79886588614434 9.02822529006749 6.37796198716387
391 125 7 0 8.75886588614434 9.02822529006749 6.37796198716387
392 125 6 0 8.99886588614434 8.09822529006749 6.37796198716387
393 126 6 0 1.202680438729 7.12570495595224 1.81518752826378
394 126 7 0 2.162680438729 7.12570495595224 1.81518752826378
395 126 6 0 2.402680438729 6.19570495595224 1.81518752826378
396 127 6 0 -0.673895432408899 4.38126994919963 2.11820500670001
397 127 7 0 0.286104567591101 4.38126994919963 2.11820500670001
398 127 6 0 0.526104567591101 3.45126994919963 2.11820500670001
399 128 6 0 10.6224413662869 10.8162201712281 0.693458468886092
400 128 7 0 11.5824413662869 10.8162201712281 0.693458468886092
401 128 6 0 11.8224413662869 9.88622017122805 0.693458468886092
402 129 6 0 11.8010708531085 7.03045010258444 13.5917301988229
403 129 7 0 12.7610708531085 7.03045010258444 13.5917301988229
404 129 6 0 13.0010708531085 6.10045010258444 13.5917301988229
405 130 6 0 10.9588051498588 10.4152816573065 4.62503809598275
406 130 7 0 11.9188051498588 10.4152816573065 4.62503809598275
407 130 6 0 12.1588051498588 9.48528165730648 4.62503809598275
408 131 6 0 6.64055032233708 13.4610866025928 9.59811814595014
409 131 7 0 7.60055032233708 13.4610866025928 9.59811814595014
410 131 6 0 7.84055032233708 12.5310866025928 9.59811814595014
411 132 6 0 -0.396615006756037 13.6781818831246 3.81807816680521
412 132 7 0 0.563384993243963 13.6781818831246 3.81807816680521
413 132 6 0 0.803384993243963 12.7481818831246 3.81807816680521
414 133 6 0 4.35258489145897 5.37060164421797 6.97566143120639
415 133 7 0 5.31258489145897 5.37060164421797 6.97566143120639
416 133 6 0 5.55258489145897 4.44060164421797 6.97566143120639
417 134 6 0 14.0996908109821 6.64027654024772 10.5969900253695
418 134 7 0 15.0596908109821 6.64027654024772 10.5969900253695
419 134 6 0 15.2996908109821 5.71027654024772 10.5969900253695
420 135 6 0 7.65951686815359 4.87877190619707 1.1127418326214
421 135 7 0 8.61951686815359 4.87877190619707 1.1127418326214
422 135 6 0 8.85951686815359 3.94877190619707 1.1127418326214
423 136 6 0 7.64697213118896 14.4690903350152 9.07290149945766
424 136 7 0 8.60697213118896 14.4690903350152 9.07290149945766
425 136 6 0 8.84697213118896 13.5390903350152 9.07290149945766
426 137 6 0 13.4318130968325 11.5570983108506 14.770724728005
427 137 7 0 14.3918130968325 11.5570983108506 14.770724728005
428 137 6 0 14.6318130968325 10.6270983108506 14.770724728005
429 138 6 0 4.6750653760694 10.8501238449849 9.73273370414972
430 138 7 0 5.6350653760694 10.8501238449849 9.73273370414972
431 138 6 0 5.8750653760694 9.92012384498492 9.73273370414972
432 139 6 0 1.18891692065634 7.77187889832072 11.2660138634965
433 139 7 0 2.14891692065634 7.77187889832072 11.2660138634965
434 139 6 0 2.38891692065634 6.84187889832072 11.2660138634965
435 140 6 0 10.3616222301219 6.95491066941991 7.72679811925627
436 140 7 0 11.3216222301219 6.95491066941991 7.72679811925627
437 140 6 0 11.5616222301219 6.02491066941991 7.72679811925627
438 141 6 0 14.1416844881326 12.6920278339554 8.81551698432304
439 141 7 0 15.1016844881326 12.6920278339554 8.81551698432304
440 141 6 0 15.3416844881326 11.7620278339554 8.81551698432304
441 142 6 0 3.5539305656869 12.5367023078166 5.84290416911244
442 142 7 0 4.5139305656869 12.5367023078166 5.84290416911244
443 142 6 0 4.7539305656869 11.6067023078166 5.84290416911244
444 143 6 0 5.20733319732361 7.04364976653829 0.211453917436302
445 143 7 0 6.16733319732361 7.04364976653829 0.211453917436302
446 143 6 0 6.40733319732361 6.11364976653829 0.211453917436302
447 144 6 0 6.14251925770193 10.1800618348084 12.7367511950433
448 144 7 0 7.10251925770193 10.1800618348084 12.7367511950433
449 144 6 0 7.34251925770193 9.25006183480844 12.7367511950433
450 145 6 0 7.15748496397398 8.95674325333908 9.8148549394682
451 145 7 0 8.11748496397398 8.95674325333908 9.8148549394682
452 145 6 0 8.35748496397398 8.02674325333908 9.8148549394682
453 146 6 0 12.9413619688433 4.90369949414395 12.6786111434922
454 146 7 0 13.9013619688433 4.90369949414395 12.6786111434922
455 146 6 0 14.1413619688433 3.97369949414395 12.6786111434922
456 147 6 0 0.520922991419211 6.55103410285898 3.2101284340024
457 147 7 0 1.48092299141921 6.55103410285898 3.2101284340024
458 147 6 0 1.72092299141921 5.62103410285898 3.2101284340024
459 148 6 0 10.0164059868269 13.2369845713861 9.02598528424278
460 148 7 0 10.9764059868269 13.2369845713861 9.02598528424278
461 148 6 0 11.2164059868269 12.3069845713861 9.02598528424278
462 149 6 0 4.53620844564401 5.66632235463709 0.815657054772601
463 149 7 0 5.49620844564401 5.66632235463709 0.815657054772601
464 149 6 0 5.73620844564401 4.73632235463709 0.815657054772601
465 150 6 0 10.8706892577186 6.33462099050172 3.92081853467971
466 150 7 0 11.8306892577186 6.33462099050172 3.92081853467971
467 150 6 0 12.0706892577186 5.40462099050172 3.92081853467971
468 151 6 0 6.00260570107028 12.9506506076455 8.74966038856655
469 151 7 0 6.96260570107028 12.9506506076455 8.74966038856655
470 151 6 0 7.20260570107028 12.0206506076455 8.74966038856655
471 152 6 0 13.1955129902065 8.07628428720869 10.9571492567193
472 152 7 0 14.1555129902065 8.07628428720869 10.9571492567193
473 152 6 0 14.3955129902065 7.14628428720869 10.9571492567193