LAMMPS (29 Sep 2021 - Update 1)
Reading data file ...
  triclinic box = (0.0000000 0.0000000 0.0000000) to (15.000000 15.000000 15.000000) with tilt (0.0000000 0.0000000 0.0000000)
  2 by 4 by 4 MPI processor grid
  reading atoms ...
  1520 atoms
  scanning bonds ...
  3 = max bonds/atom
  scanning angles ...
  3 = max angles/atom
  scanning dihedrals ...
  8 = max dihedrals/atom
  scanning impropers ...
  2 = max impropers/atom
  reading bonds ...
  1022 bonds
  reading angles ...
  535 angles
  reading dihedrals ...
  52 dihedrals
  reading impropers ...
  11 impropers
Finding 1-2 1-3 1-4 neighbors ...
  special bond factors lj:    0        0        1       
  special bond factors coul:  0        0        1       
     3 = max # of 1-2 neighbors
     6 = max # of 1-3 neighbors
     9 = max # of special neighbors
  special bonds CPU = 0.002 seconds
  read_data CPU = 0.018 seconds
WARNING: Using 'neigh_modify every 1 delay 0 check yes' setting during minimization (../min.cpp:188)
Neighbor list info ...
  update every 1 steps, delay 0 steps, check yes
  max neighbors/atom: 10000, page size: 100000
  master list distance cutoff = 13
  ghost atom cutoff = 13
  binsize = 6.5, bins = 3 3 3
  3 neighbor lists, perpetual/occasional/extra = 3 0 0
  (1) pair hbond/dreiding/lj, perpetual, skip from (3)
      attributes: full, newton on
      pair build: skip
      stencil: none
      bin: none
  (2) pair lj/cut, perpetual, half/full from (3)
      attributes: half, newton on
      pair build: halffull/newton
      stencil: none
      bin: none
  (3) neighbor class addition, perpetual
      attributes: full, newton on
      pair build: full/bin
      stencil: full/bin/3d
      bin: standard
Setting up cg style minimization ...
  Unit style    : real
  Current step  : 0
WARNING: Energy due to 1 extra global DOFs will be included in minimizer energies
Per MPI rank memory allocation (min/avg/max) = 13.52 | 13.92 | 14.95 Mbytes
Step Temp E_pair E_mol TotEng Press Volume 
       0            0 2.2110606e+15    195.12511 2.2110606e+15 1.7968465e+17         3375 
    5531            0    -955.5581    45.269566   -910.28853   -71.351329    36751.022 
Loop time of 5.88956 on 32 procs for 5531 steps with 1520 atoms

100.0% CPU use with 32 MPI tasks x no OpenMP threads

Minimization stats:
  Stopping criterion = energy tolerance
  Energy initial, next-to-last, final = 
    2.21106061322858e+15  -909.736595291463  -909.801776596481
  Force two-norm initial, final = 2.9220013e+17 90.203479
  Force max component initial, final = 1.6306584e+17 52.486531
  Final line search alpha, max atom move = 9.3965384e-06 0.00049319170
  Iterations, force evaluations = 5531 5533

MPI task timing breakdown:
Section |  min time  |  avg time  |  max time  |%varavg| %total
---------------------------------------------------------------
Pair    | 1.5915     | 2.7152     | 5.1277     |  45.8 | 46.10
Bond    | 0.0066062  | 0.01226    | 0.033101   |   4.5 |  0.21
Neigh   | 0.11451    | 0.11472    | 0.11499    |   0.0 |  1.95
Comm    | 0.26853    | 2.6842     | 3.8155     |  46.1 | 45.58
Output  | 0          | 0          | 0          |   0.0 |  0.00
Modify  | 0          | 0          | 0          |   0.0 |  0.00
Other   |            | 0.3632     |            |       |  6.17

Nlocal:        47.5000 ave          76 max          28 min
Histogram: 1 3 7 5 7 4 2 2 0 1
Nghost:        1997.88 ave        2048 max        1951 min
Histogram: 3 2 6 1 7 3 3 1 4 2
Neighs:        5180.41 ave        8986 max        3236 min
Histogram: 6 4 5 9 1 2 1 2 1 1

Total # of neighbors = 165773
Ave neighs/atom = 109.06118
Ave special neighs/atom = 2.0486842
Neighbor list builds = 91
Dangerous builds = 0
1500 atoms in group WAT
20 atoms in group MOL
Neighbor list info ...
  update every 2 steps, delay 10 steps, check yes
  max neighbors/atom: 10000, page size: 100000
  master list distance cutoff = 13
  ghost atom cutoff = 13
  binsize = 6.5, bins = 6 6 6
  4 neighbor lists, perpetual/occasional/extra = 3 1 0
  (1) pair hbond/dreiding/lj, perpetual, skip from (4)
      attributes: full, newton on
      pair build: skip
      stencil: none
      bin: none
  (2) pair lj/cut, perpetual, half/full from (4)
      attributes: half, newton on
      pair build: halffull/newton
      stencil: none
      bin: none
  (3) compute group/group, occasional, copy from (2)
      attributes: half, newton on
      pair build: copy
      stencil: none
      bin: none
  (4) neighbor class addition, perpetual
      attributes: full, newton on
      pair build: full/bin
      stencil: full/bin/3d
      bin: standard
Setting up Verlet run ...
  Unit style    : real
  Current step  : 5531
  Time step     : 1
Per MPI rank memory allocation (min/avg/max) = 12.37 | 12.44 | 12.93 Mbytes
Step Temp E_pair E_mol TotEng Press Volume 
    5531          300    -955.5581    45.269566    448.06661    1618.2209    36751.022 
    5600    298.35553   -985.85824    224.65857    589.70956    1248.8964    36751.022 
    5700    300.40532   -1041.1054    239.77537    558.86038    783.67062    36751.022 
    5800    301.54985   -1036.6626    202.90155     531.6116    855.76425    36751.022 
    5900    304.30652   -1038.3997    202.34713    541.80185    1129.4503    36751.022 
    6000    298.02045   -1082.2638    228.85407    495.98232    773.26575    36751.022 
    6100    290.82963   -1072.6654    224.42692    468.59459    791.76647    36751.022 
    6200    295.37895   -1043.3538    214.07127    508.14916    842.80732    36751.022 
    6300    296.78944   -1076.0057    216.33256    484.14503    29.867873    36751.022 
    6400    296.78648   -1022.6461    230.77333    551.93206      377.615    36751.022 
    6500    291.07259   -1049.2231    221.73984    490.44995     44.66889    36751.022 
    6600    305.71834   -1026.5601    214.48795    572.17474     1006.481    36751.022 
    6700     294.4034   -1085.4682    214.32979    461.87614     125.7973    36751.022 
    6800    303.72063   -1039.9622    231.90398    567.14333     126.6833    36751.022 
    6900    286.57706   -1001.1159    225.18119    521.64337    323.63647    36751.022 
    7000    302.31743   -1020.9071    231.46605    579.40711    885.10262    36751.022 
    7100    303.15763    -1017.376    230.25794    585.53433    580.58742    36751.022 
    7200    293.17543   -1009.6326    235.01206    552.83394    649.70843    36751.022 
    7300     306.7664   -998.79768    228.53001    618.72472    681.97813    36751.022 
    7400    306.32121   -1022.2436    226.95492    591.68793   -36.856985    36751.022 
    7500    304.49989   -1018.7406    242.53393    602.52324    987.74954    36751.022 
    7600    295.19226   -1019.8228     248.2581    565.02177    1420.5527    36751.022 
    7700    294.84685   -1043.7332    243.31857    534.60784    1159.4686    36751.022 
    7800    298.15929   -1057.9766    229.23278    521.27688    838.82861    36751.022 
    7900    312.15464   -1065.5151     243.6022    591.47666    1194.0396    36751.022 
    8000     302.9854   -1050.1604    242.71779    564.42997     880.6564    36751.022 
    8100    304.38643   -1047.1848    250.86539    581.89681    883.50152    36751.022 
    8200    294.36519   -1062.8391    234.46425    504.46672    859.77229    36751.022 
    8300    292.85392    -1051.099    236.00904    510.90878    207.77603    36751.022 
    8400    300.98034   -1039.9639    235.75592    558.58592    361.41046    36751.022 
    8500    313.25993   -1050.3103    257.31106    625.39489     163.8464    36751.022 
    8600    302.15347   -1059.5801    245.60419    554.12984    290.25201    36751.022 
    8700    305.43874   -1077.0616    224.56748     530.4868    891.82383    36751.022 
    8800     310.6752    -1035.025    256.35826    628.02408    840.20535    36751.022 
    8900    308.90657   -1054.0909    256.77945    601.37134    210.20902    36751.022 
    9000    297.95105   -1084.7972    241.23645    505.51704    496.67278    36751.022 
    9100    295.53122   -1050.8592      245.446    532.70795    194.70903    36751.022 
    9200    297.47067   -1033.1532    261.62666    575.37618    206.69152    36751.022 
    9300    301.90009   -1098.9844      245.907    513.88113   -91.454151    36751.022 
    9400    301.47646   -1066.5375    242.83643    541.33924    725.35927    36751.022 
    9500    309.40099   -1114.6449    264.52583    550.80232    213.82224    36751.022 
    9600    298.88326   -1093.7329    257.31726    516.88305     555.2165    36751.022 
    9700    292.69953    -1095.236    245.18928    475.25296     39.44338    36751.022 
    9800    304.45458   -1093.1002    244.90377    530.32839    690.19839    36751.022 
    9900    296.20098   -1112.4446    263.52776    492.23686    432.05107    36751.022 
   10000    304.50211   -1145.8573    256.57794    489.46068    415.64947    36751.022 
   10100    296.50134   -1095.6929    254.41721    501.23798    386.75842    36751.022 
   10200    302.65863   -1127.6651    251.20233    493.93022    510.90337    36751.022 
   10300    307.47162   -1092.7211    269.99198    569.45644    645.21789    36751.022 
   10400    290.71065   -1050.1045     249.0696     515.2595    148.41927    36751.022 
   10500    290.67882   -1088.9635    250.17435    477.36104   -211.25785    36751.022 
   10600    294.78058    -1051.717    255.22763      538.233    29.422684    36751.022 
   10700    295.57666   -1082.2448    274.22946    530.31155    677.31211    36751.022 
   10800    295.07162   -1063.4453    261.95185    534.54667    806.72128    36751.022 
   10900    297.35638   -1040.9849    257.26807    562.66836    247.18964    36751.022 
   11000    311.09824   -1056.3096    268.01633    620.31306     779.2287    36751.022 
   11100    297.00276   -1062.9511    272.49434    554.32732    424.55185    36751.022 
   11200    297.79235   -1105.5139    268.92865    511.77392   -98.701672    36751.022 
   11300    290.44939   -1111.4924    265.87245    469.49139    130.21834    36751.022 
   11400     309.3437   -1111.5419    246.51803    535.63808    118.17047    36751.022 
   11500    302.94658   -1114.3446    271.41452    528.76667    876.41594    36751.022 
   11600     308.5771   -1109.6908    266.98232    554.48248    368.81235    36751.022 
   11700    295.90871   -1100.7446    277.41501    516.50078   -58.028661    36751.022 
   11800    298.37163   -1106.6071    268.70337    513.07841    276.44857    36751.022 
   11900    291.03943   -1063.1919    283.99272     538.5838    450.49676    36751.022 
   12000      287.114   -1146.6578    279.53955    432.89102    398.04235    36751.022 
   12100    290.75417   -1113.4877    282.76747    485.77116    759.11547    36751.022 
   12200    290.30672   -1155.6866    267.25593    426.03479   -69.662589    36751.022 
   12300    290.26727   -1126.7493    272.13572    459.67317    369.25788    36751.022 
   12400     310.8281   -1123.4047    267.24151    551.21996     679.9137    36751.022 
   12500    296.49265   -1109.0947    280.26116    513.64086     589.6062    36751.022 
   12600    297.90613   -1118.8872    279.31441    509.30158    354.84415    36751.022 
   12700    298.77626   -1111.8707    290.65404    531.59756    120.64368    36751.022 
   12800    308.98371   -1109.7378    285.88266    575.17691    48.062332    36751.022 
   12900    296.61092    -1054.025    272.46529    561.45018    512.72173    36751.022 
   13000    306.75493   -1048.1671    297.85386    638.62715    369.28433    36751.022 
   13100    296.08013   -1073.7718    282.49559    549.33032    45.005318    36751.022 
   13200    301.17257   -1052.2311    280.78967    592.22291    700.99597    36751.022 
   13300    301.33006   -1088.5986    289.01884    564.79768    1026.0918    36751.022 
   13400    294.90923   -1100.2393    287.95769    523.02334    519.23145    36751.022 
   13500     306.5584   -1026.8693    301.55679    662.73807    408.10242    36751.022 
   13600    287.13522   -1064.5307    281.35594     516.9306     278.5164    36751.022 
   13700    301.87826   -1038.9198    312.26752    640.20737    1038.9654    36751.022 
   13800    301.17441   -1091.7935    309.86661    581.74578     19.01772    36751.022 
   13900    301.98594   -1060.0508    269.71777    577.01417    840.86581    36751.022 
   14000    314.04974   -1084.1186    311.97171    649.82338    131.63769    36751.022 
   14100    297.87355   -1104.6021    287.26274    531.38759     274.6407    36751.022 
   14200    290.04882   -1121.1158    301.70834    493.89019    142.46154    36751.022 
   14300    307.94948   -1095.8063    293.72137    592.26426    501.59508    36751.022 
   14400    294.49742    -1121.806    303.00422    514.63853     114.5777    36751.022 
   14500    310.34554   -1137.6518     284.8616    552.40798   -231.31995    36751.022 
   14600    301.38883   -1112.5242    294.13485    546.25423    94.816099    36751.022 
   14700    303.87381   -1133.4636    319.03875    561.47034    31.752768    36751.022 
   14800    295.44247   -1148.3366    277.26855    466.65126   -197.56172    36751.022 
   14900    294.85376   -1159.4927    305.38836    480.94938    29.227001    36751.022 
   15000    304.16307   -1160.9777    293.64356    509.87082    -290.1539    36751.022 
   15100    304.27175   -1103.7268    286.23862    560.20875    43.899446    36751.022 
   15200    292.52071   -1103.8284    300.67192    521.33358   -308.53073    36751.022 
   15300    315.40331   -1130.8517    300.04193    597.28923   -69.022271    36751.022 
   15400    300.93402   -1133.8648    298.82039    527.53985    108.75977    36751.022 
   15500    300.82068   -1147.5283     308.6215    523.16422    224.74715    36751.022 
   15600    295.68313   -1131.4749    298.20725    505.54134   -420.09551    36751.022 
   15700    297.46019   -1112.3445    311.97725    546.48798    3.7702443    36751.022 
   15800    298.21942   -1094.9958    297.17626    552.47343    639.00706    36751.022 
   15900    302.73666   -1157.9235    294.13559    506.95844    331.17092    36751.022 
   16000    294.76793   -1155.6656    299.48764    478.48712    708.27189    36751.022 
   16100    304.91751   -1159.4718    305.56635    526.71543    748.41246    36751.022 
   16200    287.49369   -1161.4567    316.72328    456.99497    559.83657    36751.022 
   16300    297.87837   -1194.0144    320.37994    475.11429    90.184058    36751.022 
   16400    301.69606    -1189.372    305.88149    482.54417   -126.53179    36751.022 
   16500    298.99246   -1150.6615    315.24832    518.38003    219.08129    36751.022 
   16600    296.61831   -1155.0464    307.77728     495.7742   -150.45701    36751.022 
   16700    302.84773   -1134.3417    329.58613    566.49363   -103.46851    36751.022 
   16800    301.65324    -1167.593    309.36891    507.61673    453.70066    36751.022 
   16900    309.39216   -1136.1207    314.63825    579.39897    640.87988    36751.022 
   17000    300.45764   -1144.9582    321.43741    536.90649    327.15835    36751.022 
   17100    305.51454     -1110.39    320.28894    593.22306    704.24122    36751.022 
   17200    307.67996   -1125.0166    332.69961    600.81188     11.85699    36751.022 
   17300    306.96038   -1152.0345    320.44086    558.27709   -187.10276    36751.022 
   17400    297.21022   -1125.6483    320.67606    540.75118    16.055364    36751.022 
   17500    297.56429   -1124.3412    321.23466    544.22007    454.83573    36751.022 
   17600    297.99621   -1089.6946     325.9031    585.49075    702.26536    36751.022 
   17700    292.69643   -1145.2161    330.97587    511.04543     291.2055    36751.022 
   17800    293.99258   -1139.4613    319.81704    511.51012    531.40373    36751.022 
   17900     307.0034   -1125.8908    313.27022    577.44493    950.25208    36751.022 
   18000    296.79149   -1171.4925    342.60522    514.94025    381.11845    36751.022 
   18100    309.57449   -1164.1491    334.54092    572.09885    494.08507    36751.022 
   18200    298.42432   -1131.0367    326.20127    546.38528    3.3114647    36751.022 
   18300    302.03893   -1117.5275    335.57888     585.6385    476.94268    36751.022 
   18400    296.76461   -1123.8798    349.31605    569.14202    373.72058    36751.022 
   18500    291.00179   -1087.4799     339.0245    569.15716   -126.02313    36751.022 
   18600    296.77545   -1093.8178    331.10777    581.04483   -261.70507    36751.022 
   18700    292.05544   -1062.6938    347.51674     607.2063   -485.76187    36751.022 
   18800    304.50045   -1169.6617    343.95626    553.02703   -384.02803    36751.022 
   18900    310.50267   -1157.0423    354.51692     603.3843   -524.04204    36751.022 
   19000    296.61649   -1132.5144    326.44272    536.96348   -238.10631    36751.022 
   19100    301.88759   -1177.5997    334.55744    523.85964   -280.20009    36751.022 
   19200    301.61282   -1135.9892    332.57914     562.2477    32.415507    36751.022 
   19300    303.19233   -1091.9046     320.2232    601.12815    254.62739    36751.022 
   19400    302.70891   -1156.6625    359.43451    573.39273   -71.422107    36751.022 
   19500    296.26018   -1126.7472    355.14158    569.81618    336.92961    36751.022 
   19600     301.1981   -1162.7111    329.36951    530.43836    286.32681    36751.022 
   19700    300.65532   -1168.7178     336.0097    528.61419     473.5611    36751.022 
   19800    304.07324   -1134.5548    370.27784    612.52118    581.39448    36751.022 
   19900    296.86904   -1168.0557    322.38974    498.51263    764.09932    36751.022 
   20000    303.94266   -1217.0809    339.02858    498.15455    351.15813    36751.022 
   20100    299.14818   -1206.7676    316.06643    463.79705    254.87001    36751.022 
   20200    294.57513    -1173.953    357.70136     517.5405   -522.99113    36751.022 
   20300    294.68626   -1175.2524    336.62904    495.67193   -202.29087    36751.022 
   20400    302.67052   -1187.8707    333.10589    515.68201    299.25845    36751.022 
   20500    309.78736   -1155.4289    366.17348    613.41539    468.54875    36751.022 
   20600    302.28341   -1140.0868    355.20117    583.80839   -99.725925    36751.022 
   20700    298.97742   -1134.6403    343.08983     562.1746   -129.46502    36751.022 
   20800    301.70964   -1141.9004    353.51475    577.71044    484.41213    36751.022 
   20900    290.31315   -1196.0025    365.90283     484.3949    457.56363    36751.022 
   21000      300.987    -1157.643    353.46907    558.65018    491.41465    36751.022 
   21100    298.95886   -1195.2349    332.09746    490.50358    531.69525    36751.022 
   21200    298.07345   -1211.2859    337.27989    475.62602    122.61219    36751.022 
   21300     305.1876   -1229.2704     346.0474    498.62087    80.200882    36751.022 
   21400     304.4908   -1261.2216    325.43775    442.90498    516.37085    36751.022 
   21500    299.23183   -1272.7663    338.76542    420.87614    182.41081    36751.022 
   21600    299.26768   -1220.3262    368.21724    502.93031     511.8175    36751.022 
   21700     299.7735   -1181.9222    348.05942    523.46681   -60.597392    36751.022 
   21800    293.87327   -1182.8408    336.03535    483.80874   -120.32846    36751.022 
   21900    300.51941    -1200.222    355.50479     515.9897    128.07923    36751.022 
   22000    303.45357   -1241.2525    346.24192    478.98186   -273.34616    36751.022 
   22100     288.2473   -1197.1915    337.97112    445.92034   -418.69701    36751.022 
   22200    289.15599    -1237.406    367.94281    439.79185    443.29604    36751.022 
   22300    309.32164   -1229.9423    332.39774    503.01754    802.20956    36751.022 
   22400     305.0223   -1247.8775    363.39016    496.60803    204.50748    36751.022 
   22500    295.71567   -1183.9246     361.0145    516.04622    682.79069    36751.022 
   22600     300.1001    -1259.522    324.06026     423.3466    506.73907    36751.022 
   22700    304.09115   -1204.5756    354.52671    526.83038    160.57128    36751.022 
   22800    300.46212   -1206.9459    361.10069    514.60228     114.7345    36751.022 
   22900    303.60394   -1165.4889     351.1771    560.36141    522.85504    36751.022 
   23000    304.71529   -1169.4668      343.131    553.36943     148.7847    36751.022 
   23100    304.16085   -1183.5306    362.22783    555.89212   -136.86528    36751.022 
   23200    292.72136   -1166.7711    358.52795    517.15537    502.03645    36751.022 
   23300    307.78618   -1211.3096    359.17032    541.47052    755.13725    36751.022 
   23400    300.19699   -1225.6911    352.98267    486.53863    814.67583    36751.022 
   23500    303.01052   -1204.2107    371.34503    539.12071    611.46559    36751.022 
   23600    300.20615   -1197.1994    371.50326    533.59242    473.26102    36751.022 
   23700    302.25388   -1207.1714    376.32037    537.70938    756.63988    36751.022 
   23800    305.57027   -1212.0771    359.86436    531.36376    128.34706    36751.022 
   23900    294.46069   -1222.1179     369.6435     480.7996    673.60462    36751.022 
   24000    297.98326   -1224.2361    351.92061    476.90813    567.45868    36751.022 
   24100    300.49044   -1187.3562    360.23238    533.45199     822.0388    36751.022 
   24200    306.16407   -1194.5127    350.72657    542.47903     428.7416    36751.022 
   24300    303.67753   -1182.5801    374.00515    566.43147    538.68747    36751.022 
   24400    298.64169   -1184.4431    355.10938     522.8712    63.554056    36751.022 
   24500    301.62007   -1205.7109    370.33557    530.31525     533.5663    36751.022 
   24600     303.6288   -1222.9183    381.70818    533.57569   -443.20574    36751.022 
   24700    297.01057   -1215.5912    367.65709    496.88537     36.44833    36751.022 
   24800    300.86045   -1201.5671    347.74505    508.42905   -356.51109    36751.022 
   24900    287.99729   -1178.9236    373.07024    498.15528   -540.40842    36751.022 
   25000    300.49799   -1225.0236    382.23433    517.82067    -494.0275    36751.022 
   25100    297.96354   -1225.0831    343.21684    467.26811   -372.17287    36751.022 
   25200     303.1305   -1186.7971    353.11251    538.84499   -281.06973    36751.022 
   25300    298.43719   -1174.8803    383.63659    560.03526   -306.16727    36751.022 
   25400    294.88242   -1146.2976    366.19039    555.07627   -250.79254    36751.022 
   25500    311.28431   -1208.1544    360.59473    561.88921   -119.29582    36751.022 
   25600    294.62417   -1220.2251    339.65851    453.44759   -49.987741    36751.022 
   25700      300.574   -1196.9423    373.72037    537.73221    2.1298381    36751.022 
   25800    300.99382   -1239.0397    359.21485    483.03021     49.08753    36751.022 
   25900     296.2655   -1226.5549    373.81649     488.7075    655.61419    36751.022 
   26000    299.26999   -1228.8984    359.90973    486.06107    418.22366    36751.022 
   26100    309.90003   -1194.9845    383.15746    591.35391     890.9835    36751.022 
   26200    301.20142   -1207.2052    373.11111    529.70089    1067.5796    36751.022 
   26300    303.40954   -1188.9248    368.71295    553.58117    745.87508    36751.022 
   26400     295.7908   -1188.6044    357.99667    508.68877    150.31973    36751.022 
   26500    300.54317   -1189.0845    344.40019    516.13018     472.8511    36751.022 
   26600    304.02338   -1176.6283    364.86243    564.80653   -85.735494    36751.022 
   26700    303.54578    -1161.423    366.49829    579.48522    -199.7852    36751.022 
   26800    294.63094   -1180.1978    370.54778    524.39478   -521.95972    36751.022 
   26900    304.60979   -1178.7022    372.11635    572.64175   -56.266769    36751.022 
   27000    297.65098   -1165.9109     359.0886    540.89689    278.51854    36751.022 
   27100    305.35005    -1195.433    348.59144    535.73776    229.48347    36751.022 
   27200    307.96672   -1200.8493    364.72243    558.30039   -215.39831    36751.022 
   27300     302.8707    -1208.391     365.6656    528.62785   -235.12259    36751.022 
   27400    292.99067   -1179.3406    348.51585    495.79325   -223.53732    36751.022 
   27500    299.63582    -1185.547    367.73488    538.89412   -209.87938    36751.022 
   27600    303.63637   -1212.9482    379.22633    541.09825   -672.52762    36751.022 
   27700     308.0056   -1218.9332    366.30033    541.97045    149.69601    36751.022 
   27800    291.86746   -1190.4986     363.7098    494.74337   -509.99454    36751.022 
   27900    308.63352   -1215.2756     388.3723    570.54315   -352.80421    36751.022 
   28000    297.92649   -1185.5938    367.85668     531.2295   -393.04213    36751.022 
   28100    308.20126   -1229.5862    382.40502    548.30804    114.72584    36751.022 
   28200    306.79922   -1147.9584    388.68938    629.87198    74.502615    36751.022 
   28300    308.89946   -1228.2401    376.91955       547.33    187.71936    36751.022 
   28400    295.08251   -1208.2363    380.61116    508.46438    89.427184    36751.022 
   28500    300.87479   -1225.1956    381.44471    518.56517    188.26754    36751.022 
   28600    309.77927   -1199.3751    373.34588    576.60501    331.87698    36751.022 
   28700    296.83692   -1189.5773    362.65632    517.11219    35.976461    36751.022 
   28800    293.77121   -1173.3145    389.25274    546.09031    183.28769    36751.022 
   28900    299.88692   -1158.4704    414.90773    614.28043   -393.52033    36751.022 
   29000    305.33777   -1146.5008    387.03388    623.05682   -296.54329    36751.022 
   29100    308.99457   -1195.1834    374.14142     578.0392    -103.6905    36751.022 
   29200    296.78828   -1202.8059     374.9948    516.00181   -974.35865    36751.022 
   29300    304.15552    -1211.567    374.19019     539.7939   -397.32961    36751.022 
   29400    305.82812   -1127.0906    377.98127    635.63468   -124.83159    36751.022 
   29500    296.20233   -1189.9015    384.36634     535.6247    -467.4444    36751.022 
   29600    308.19955   -1177.8552    357.73223     575.3585   -163.88377    36751.022 
   29700    288.85598   -1169.9021    388.58137    526.57603   -231.04977    36751.022 
   29800    299.30354   -1162.2117    385.49511    578.48506    433.93702    36751.022 
   29900    284.89564   -1211.1495    390.53365    469.34902    335.40011    36751.022 
   30000    298.27875   -1212.8033    377.11657    514.87481    -54.71263    36751.022 
   30100    299.58534   -1185.4959    382.69923    553.68101    34.659643    36751.022 
   30200    296.74947   -1202.7316    388.83965    529.74531     290.1877    36751.022 
   30300    291.01412   -1177.2834    368.63882    509.02382   -50.030668    36751.022 
   30400    301.48292   -1206.1933    374.21771    533.09397    45.456229    36751.022 
   30500    301.89566   -1233.1097    370.17677    504.00553    97.001346    36751.022 
   30600    291.43563   -1213.0101    394.19712    500.76397   -164.37677    36751.022 
   30700    308.10496   -1140.7439    383.90665    638.21595   -70.962195    36751.022 
   30800    295.95098   -1226.2283    365.25026    479.04375    -29.90931    36751.022 
   30900    295.73537   -1215.5944    384.46982    507.92099   -328.04857    36751.022 
   31000     300.7467     -1210.58    375.47737     526.6335   -310.08387    36751.022 
   31100    298.07366   -1155.8531    392.57701    586.35683   -253.79505    36751.022 
   31200    296.45865   -1196.3493     390.2478    536.21897    110.38812    36751.022 
   31300    305.32211   -1246.1906    393.23281    529.49508    243.00717    36751.022 
   31400    293.80586   -1245.9344    378.61647    462.99108     582.6635    36751.022 
   31500    303.61072   -1242.4272    378.15419    510.43092    636.44755    36751.022 
   31600    292.92543   -1221.6333    378.15461    482.84389    626.62746    36751.022 
   31700    289.07363   -1257.2615      369.172    420.79268    185.08193    36751.022 
   31800    303.99226   -1265.0533    381.76106    493.13924    147.75056    36751.022 
   31900    289.25137   -1221.5647     391.1012    479.22345    68.895358    36751.022 
   32000    294.78365   -1259.1471    389.94272    465.53189    7.9371748    36751.022 
   32100    303.76542   -1258.0546    410.42372    527.77353    325.22392    36751.022 
   32200    301.22544    -1241.023    396.99626    519.87697    475.66637    36751.022 
   32300    298.42994   -1247.5171    398.27806    502.00709    93.086983    36751.022 
   32400    294.28277   -1241.0197    399.26034    490.70905    412.44451    36751.022 
   32500    305.70939     -1232.58    403.99867    555.62514    775.31398    36751.022 
   32600    307.52656   -1248.9044    372.21716    515.74698    94.653856    36751.022 
   32700    310.39576   -1251.7314    384.99741    538.69164    407.32281    36751.022 
   32800    300.25258   -1248.0913    401.14256    512.54999    638.23276    36751.022 
   32900    307.50174   -1268.3879     400.0882    524.02222    831.92398    36751.022 
   33000    293.32662   -1215.4293     406.5202    519.22995    190.83464    36751.022 
   33100     294.0042   -1220.1985     406.7617     517.7703   -59.929371    36751.022 
   33200      302.108    -1210.526    395.50334     552.8772   -12.881606    36751.022 
   33300    287.19223   -1192.7104    398.74466    506.39775   -239.66205    36751.022 
   33400    295.40685   -1211.8184    396.07651    521.81615    7.4929496    36751.022 
   33500    297.51988   -1200.5518    405.25604    551.82981   -237.18777    36751.022 
   33600    299.11854    -1207.741     419.7065    566.32957     24.65825    36751.022 
   33700    303.00455   -1211.6371    417.38524    577.70748    272.07989    36751.022 
   33800    303.37679    -1223.447    416.74831    566.94608    57.203764    36751.022 
   33900    294.25274   -1218.9415    401.79874    515.18964   -117.44848    36751.022 
   34000    303.95361   -1245.3266    418.67071    549.60059    264.31597    36751.022 
   34100    307.95384   -1278.0056    383.69381    500.05716    568.78359    36751.022 
   34200    296.18811   -1250.0054    418.56371    509.65373    108.21614    36751.022 
   34300    308.92042   -1265.2934    397.84015    531.29219   -52.358296    36751.022 
   34400    303.62022   -1229.2099    385.18532    530.72235   -330.02724    36751.022 
   34500    299.23376   -1237.9174    384.92871    501.89705   -266.06832    36751.022 
   34600    296.85461   -1206.1278    386.65301    524.63844   -52.527775    36751.022 
   34700    290.08744   -1242.8561    405.38297    475.99938   -419.93798    36751.022 
   34800    297.69655      -1254.2    384.76178    478.48721   -133.72628    36751.022 
   34900    301.30073    -1256.364    415.49696    523.37759    402.09803    36751.022 
   35000    301.19513   -1225.6093    411.01079    549.16805     162.2954    36751.022 
   35100     303.1502   -1260.5652    401.27441    513.32801    303.69995    36751.022 
   35200    289.41605   -1244.5937    397.87798    463.71682    123.27932    36751.022 
   35300    302.08282   -1237.1969    413.77137     544.3603   -21.709117    36751.022 
   35400    304.16664   -1253.1013    395.36382    519.48352   -44.475443    36751.022 
   35500    294.51403   -1252.7993    406.72943    487.44563   -20.062296    36751.022 
   35600    299.82364   -1305.7215    425.23019     477.0653    202.42608    36751.022 
   35700    295.71119   -1271.9364    397.00128    464.00089   -475.43289    36751.022 
   35800    292.50734   -1295.0867     389.8751     419.2179   -534.02582    36751.022 
   35900    304.16246   -1265.3156    406.99487    518.88136    115.80766    36751.022 
   36000     294.6569   -1284.6302    400.03699    449.56917    74.155589    36751.022 
   36100    308.00098   -1293.1327    379.79815    481.24778   -383.49079    36751.022 
   36200     304.3392   -1232.7066    393.72192    539.01773   -751.11671    36751.022 
   36300    301.37193   -1267.3357    399.84397    497.07532   -90.414924    36751.022 
   36400    310.86843   -1197.9842    404.17637    613.75789    391.97308    36751.022 
   36500    293.42648   -1197.0304    419.08629    550.64707    396.88312    36751.022 
   36600     290.5524   -1238.1269    389.63465    467.08557    553.26708    36751.022 
   36700    304.65148   -1238.3593    412.12034    553.17736    615.85571    36751.022 
   36800    304.74118   -1232.3741    398.98915    546.43759    484.24754    36751.022 
   36900    296.37708   -1203.1101    418.62984    557.47087   -247.05875    36751.022 
   37000    294.50561   -1222.5607    412.59006    523.50673   -699.02959    36751.022 
   37100    299.87491   -1272.9723    406.22844    491.04491   -89.958256    36751.022 
   37200    298.35274   -1258.1342     408.3499    501.11223   -461.47169    36751.022 
   37300    293.78595   -1270.5802    411.38135    471.01995   -67.589907    36751.022 
   37400    296.12263   -1255.5896    415.22314    500.43253    283.99426    36751.022 
   37500    302.99381   -1260.5394    402.13885    513.51009     62.36447    36751.022 
   37600    294.45598   -1212.0232    412.34895    533.57842   -50.113996    36751.022 
   37700    310.30255   -1221.5033    438.25595    621.75624   -175.79821    36751.022 
   37800    303.55046   -1272.9634    411.98944    513.45713    400.72228    36751.022 
   37900    299.82958   -1242.8543     409.1029    523.83208    384.18468    36751.022 
   38000    303.60336   -1259.4656    410.02006    525.22509    222.64988    36751.022 
   38100    300.23457   -1259.8294    397.05547    496.64332   -232.39779    36751.022 
   38200    299.11756   -1273.8102    400.52466    481.07405   -1.0860963    36751.022 
   38300    299.56832   -1248.1258    398.44465    506.71943   -306.21196    36751.022 
   38400    290.70761   -1215.7772    417.39118    517.89461   -233.03582    36751.022 
   38500    306.95904   -1262.2109    395.23174    522.88552    576.99309    36751.022 
   38600    296.42813   -1236.8701    444.84551    550.15764    694.23603    36751.022 
   38700    299.51691   -1234.2761    421.44484    543.33651    581.25274    36751.022 
   38800    299.11189   -1210.3715    431.31445    575.27689    590.40613    36751.022 
   38900    309.18065   -1241.4624    421.30717    579.76856    945.87119    36751.022 
   39000     298.6701   -1253.7546     434.8746    533.45357    702.96999    36751.022 
   39100    292.96168   -1251.9144    413.99609    488.56841    464.29893    36751.022 
   39200    290.35583   -1219.3653    426.90481    522.22733    602.97674    36751.022 
   39300    309.54754   -1178.4711     425.7827    648.89656    1143.5773    36751.022 
   39400    306.48713   -1229.2016    427.55269    586.07896    234.58749    36751.022 
   39500    291.38792   -1229.0888    424.74723     515.0194    423.77768    36751.022 
   39600    294.69932   -1219.2483    416.46536    531.57154    649.79254    36751.022 
   39700     296.1155   -1219.5615    411.47072    532.67591    771.84482    36751.022 
   39800    307.59606    -1249.743    440.04594    583.05192    82.301669    36751.022 
   39900     288.7233   -1264.8555    436.37429    478.81476   -192.87519    36751.022 
   40000     301.2886   -1247.7824    390.07848    506.48581   -26.524826    36751.022 
   40100    305.53844   -1251.8941    417.55501    549.09331    33.946021    36751.022 
   40200    306.31755   -1259.0309    422.48873    550.41787   -163.13343    36751.022 
   40300    300.22218   -1250.5055    411.10267    519.95832    191.40613    36751.022 
   40400    306.42432   -1237.5321    421.53798    571.44942   -75.197137    36751.022 
   40500    292.25567   -1195.6376    431.64006    559.29246    496.49742    36751.022 
   40600    301.37038   -1180.8206    426.99173    610.73119     752.4416    36751.022 
   40700    302.25157   -1195.4944    434.18412    607.23961    780.81838    36751.022 
   40800     309.5056   -1207.5615    441.04712    634.88066    795.68161    36751.022 
   40900    301.69361   -1218.0836     401.1964    549.13633     529.2419    36751.022 
   41000    297.32529   -1227.4822    412.77605    531.53826    266.91155    36751.022 
   41100     303.2926    -1247.745    407.30546    532.82402    393.93758    36751.022 
   41200    304.80208   -1241.5131    426.02199    564.60718    812.26336    36751.022 
   41300    288.44163   -1255.9513    420.91032    470.97957   -9.8622487    36751.022 
   41400    302.68979   -1283.3693    416.84135    504.00617   -411.84326    36751.022 
   41500    304.89512   -1295.1949    418.15798    503.48262   -246.09747    36751.022 
   41600    306.54371   -1247.1749    427.50185    568.31103   -485.88072    36751.022 
   41700     288.0021   -1275.8911    390.38192    418.52132   -368.72637    36751.022 
   41800    306.05706   -1259.3523    431.62239    558.05068   -915.38422    36751.022 
   41900    307.02744   -1287.3015    419.58673    522.45961   -437.04294    36751.022 
   42000    306.38576   -1297.8552    418.91833    508.33204   -660.14182    36751.022 
   42100    302.66636   -1267.5465    428.24224     531.1238   -29.041083    36751.022 
   42200    302.16459   -1312.6293    402.69418     458.2209    404.93409    36751.022 
   42300    312.93086    -1317.821    402.11902    501.20218    172.28321    36751.022 
   42400     298.8053   -1345.3713    412.00468    419.57912    279.14124    36751.022 
   42500    305.41115   -1271.9723    408.17505    519.05871    939.12262    36751.022 
   42600    303.95272   -1214.5434    422.16239    583.87144    695.72251    36751.022 
   42700    305.48182   -1266.9714    422.19812    538.40272    366.37708    36751.022 
   42800    287.40251   -1276.9509    419.05831    443.42301    397.25026    36751.022 
   42900    306.03076   -1254.8715    423.90087    554.69085    309.24869    36751.022 
   43000    291.72357   -1301.5493    404.10058    423.43199    201.84194    36751.022 
   43100    303.44731   -1291.5838    425.50885    507.88906    36.675422    36751.022 
   43200    301.05648   -1287.7663    410.76499    486.13742    224.78691    36751.022 
   43300    297.17378    -1268.457    427.20667    504.30809    581.34697    36751.022 
   43400    306.66248   -1276.8708    447.32916    558.98025    1044.2525    36751.022 
   43500    302.17817   -1287.9522    431.94269    512.20803    379.10037    36751.022 
   43600    294.08261   -1282.9161    411.64522    460.29123    389.02124    36751.022 
   43700    311.44873    -1299.099    418.94751    530.04174    701.76837    36751.022 
   43800    290.66316    -1289.215     432.1686    459.03289   -142.11192    36751.022 
   43900    308.03356   -1276.8304    433.42793     551.3274    437.62593    36751.022 
   44000    304.59795   -1302.3999     420.7996    497.57365   -64.034351    36751.022 
   44100    304.44834   -1271.0075    434.32297    541.81203    201.50218    36751.022 
   44200    298.95578   -1266.0631    417.71934    505.28327    728.12236    36751.022 
   44300    294.06504    -1265.674    407.68859     473.4971    188.88842    36751.022 
   44400    310.69308   -1250.4409    438.98791    595.31885    315.69835    36751.022 
   44500    301.23988   -1295.2547    444.83036    513.54476    8.5582793    36751.022 
   44600    306.62572   -1285.4739    458.73778     561.6193   0.05451519    36751.022 
   44700    292.89289   -1267.3445    442.85532    501.68608    312.43267    36751.022 
   44800    294.61353   -1269.4902     426.7112    491.18703   -301.97548    36751.022 
   44900    306.84366   -1284.4621    438.72638    543.60654   -480.48838    36751.022 
   45000     295.7164   -1280.4259    421.81547    480.34922    42.133746    36751.022 
   45100    298.63167   -1310.0309    418.15816    460.28687    54.345249    36751.022 
   45200    291.40653   -1247.7992    452.75925    524.40526   -386.02524    36751.022 
   45300     300.0903   -1258.0702    433.05957    533.75336    24.826213    36751.022 
   45400    301.68455   -1248.2381    432.34702    550.09142    224.92673    36751.022 
   45500    305.08528    -1270.928    455.78649      566.239    306.55424    36751.022 
   45600    306.15889   -1316.0582    426.79852    496.98196    364.62246    36751.022 
   45700    296.71331   -1284.3466    421.80029     480.9272    428.84052    36751.022 
   45800    298.45716   -1304.0124    433.50881    480.86583    253.13462    36751.022 
   45900    294.70727    -1317.994    421.69118    438.08763    114.99258    36751.022 
   46000    299.58062   -1297.7065    425.26832    484.01803    503.66517    36751.022 
   46100    293.58582   -1334.7927    419.78315    414.30319    100.94032    36751.022 
   46200    298.67944   -1288.7896    414.71004     478.2963   -244.75886    36751.022 
   46300    288.73908   -1306.2166    430.10347    431.25424   -624.05922    36751.022 
   46400    297.74054   -1276.7018      411.679    483.10188   -256.86174    36751.022 
   46500    295.92271   -1276.4741    421.47574     484.8954    -189.9494    36751.022 
   46600    295.24339   -1288.3223     445.4929    493.98857   -672.35825    36751.022 
   46700    294.35264   -1267.8929    455.17286    520.06473   -587.57322    36751.022 
   46800    296.89361    -1304.169    436.51278     476.6336   -218.06644    36751.022 
   46900    306.27318   -1272.1974    454.59708    569.15888    499.01416    36751.022 
   47000    301.88562   -1294.8127    450.91358    522.99377    351.63453    36751.022 
   47100    298.66628    -1308.467    440.47022    484.31948    638.19801    36751.022 
   47200    302.47166   -1312.7644    444.06838    500.85041    470.72444    36751.022 
   47300    294.15873   -1340.3622     435.9644    427.50893      346.006    36751.022 
   47400    301.10718   -1260.5097    406.69415     509.5528    158.71916    36751.022 
   47500    298.94701   -1282.2542    430.30067    501.63388    604.44938    36751.022 
   47600    306.69123    -1313.297    461.66096    537.01601    464.19494    36751.022 
   47700    308.28092   -1290.6315    458.83335    564.05179    538.98652    36751.022 
   47800    290.78402   -1272.7548    452.39485    496.26663    164.89053    36751.022 
   47900    305.50207   -1263.5522    457.49164    577.20719    568.52034    36751.022 
   48000    309.25462   -1256.7245    448.31505    591.84925    297.44997    36751.022 
   48100    305.87279   -1270.0625    448.37526    563.25896    376.71334    36751.022 
   48200    302.65166   -1316.0616     446.7822    501.08206    350.30546    36751.022 
   48300    302.48073   -1347.0862    447.35776    469.85911    244.91863    36751.022 
   48400    303.21508   -1320.8477    460.37787    512.44266    517.92593    36751.022 
   48500    304.55699   -1345.1622    429.23697     463.0633    555.75492    36751.022 
   48600    305.05678   -1323.1273    446.60901    504.73319    1046.8859    36751.022 
   48700     306.5548   -1329.1997    460.47596    519.31057    88.225026    36751.022 
   48800    302.73343   -1334.9129    476.91171    512.73052    107.95021    36751.022 
   48900     301.1593   -1295.7489    427.61649    495.47188    413.75547    36751.022 
   49000    302.80474   -1337.0723    443.01003    476.99236    232.20836    36751.022 
   49100    295.47715   -1312.2332    439.72103    465.36419    479.85928    36751.022 
   49200    304.53292    -1294.771    446.89301    531.00154    257.83926    36751.022 
   49300    304.02741   -1312.0064    479.22205    543.80629    20.755247    36751.022 
   49400    298.16254   -1289.5682    457.11992    517.58714    370.24102    36751.022 
   49500    297.96513   -1310.4123    448.21714    486.94642    261.93838    36751.022 
   49600    296.87642   -1333.2771    445.08667    456.02159     364.9285    36751.022 
   49700    306.69077   -1318.0672    453.44995    524.03269    690.38059    36751.022 
   49800    310.86991   -1356.0277    473.80228    525.34708    242.13438    36751.022 
   49900    304.30134   -1333.7271     452.2643    496.36815    611.87181    36751.022 
   50000    308.27657   -1326.6385    446.43526    515.62698     545.9188    36751.022 
   50100    296.61403     -1345.52    444.41286    441.91689    29.841113    36751.022 
   50200     316.6782   -1350.1449    448.71249    532.43912    299.47521    36751.022 
   50300    301.28663   -1338.7849    444.59602    469.99195    799.92476    36751.022 
   50400    302.94227   -1339.4202    451.23137    483.48842    115.60992    36751.022 
   50500    299.21899   -1348.7436    445.24884    451.32408    558.28985    36751.022 
   50600     302.5458   -1363.2934    438.63136    445.22004   -611.67406    36751.022 
   50700    297.14103   -1356.8983    443.40647    431.91834    353.28277    36751.022 
   50800    295.60538   -1363.9341     412.0786     386.6015   -330.74403    36751.022 
   50900    292.60243   -1368.0621    459.79582    416.59379    -254.5202    36751.022 
   51000    302.24566   -1372.7824    454.74542    450.48612   -195.96014    36751.022 
   51100    301.18546   -1334.3371     421.8787    451.26436     252.7214    36751.022 
   51200    303.72012   -1349.2703    450.19167    476.12069    173.48692    36751.022 
   51300    296.67978   -1390.2939    467.74476    420.77259     146.9878    36751.022 
   51400    308.02346   -1360.8147    433.24898    467.11849    328.07928    36751.022 
   51500    297.48219   -1404.8699    460.85231    402.93726    472.02301    36751.022 
   51600    286.94299   -1358.6648    459.65081    400.22096   -390.14186    36751.022 
   51700    306.08174   -1366.3998    438.40171    457.89427    141.18843    36751.022 
   51800    299.26666   -1345.4358    467.16188    476.76082    465.40122    36751.022 
   51900    303.21154   -1312.5734    477.13602    537.45913   -30.800684    36751.022 
   52000    301.56533   -1296.1327    456.11786    525.42787   -262.33049    36751.022 
   52100    303.95993   -1336.1724    443.09549    483.20825    812.07686    36751.022 
   52200    298.57047   -1294.7116    453.75731    510.92815     311.2531    36751.022 
   52300    306.44254    -1317.123    465.23677    535.63979    397.23795    36751.022 
   52400    308.67814   -1370.7848    439.29433    466.15798    574.53539    36751.022 
   52500    303.09342   -1354.0821    441.02404    459.30363    104.90812    36751.022 
   52600    300.73064    -1323.257    464.50709    502.91348   -284.08699    36751.022 
   52700    309.20122   -1314.7791     469.1931    554.43092   -183.24432    36751.022 
   52800    303.00432   -1302.5118    452.70621    522.15263     205.3096    36751.022 
   52900    298.03351   -1325.9024    456.08656    479.63535   -252.81098    36751.022 
   53000    294.33475   -1341.9893    466.63105     457.3455   -630.39837    36751.022 
   53100    306.32412   -1344.4647    450.55939    493.08447   -784.21088    36751.022 
   53200    299.27018   -1323.6383     435.4175    466.82984    53.057888    36751.022 
   53300    303.54363   -1353.3079    445.51117    466.60342     397.5694    36751.022 
   53400    294.68875   -1369.2504    476.93111    441.98736    302.54851    36751.022 
   53500    310.14413   -1391.8932     456.2721    468.66517    398.84624    36751.022 
   53600    306.11814   -1303.8948    451.38581    533.54816    828.50745    36751.022 
   53700    295.54128   -1350.2014    445.34929     433.3146   -44.212462    36751.022 
   53800    300.04392   -1372.5532     437.3825    423.38327    189.35517    36751.022 
   53900    304.70308   -1343.3141    437.75663    474.09253    80.256703    36751.022 
   54000    289.60701    -1379.884    465.49686    396.91012    338.36823    36751.022 
   54100    299.66949   -1393.3556    462.70543    426.20847    489.76755    36751.022 
   54200    296.84286   -1348.8234    467.62498    462.86166     171.7479    36751.022 
   54300    288.90194   -1361.6547    462.50353    408.95365    57.390965    36751.022 
   54400    305.88659   -1364.8483      444.202    464.36246   -71.211937    36751.022 
   54500    306.38353    -1372.571    456.79731    471.48508   -497.24807    36751.022 
   54600    312.37791   -1371.2508    431.57303    474.72271     184.1054    36751.022 
   54700    306.81346   -1357.0738     466.1986    498.33029    428.85037    36751.022 
   54800     293.1855   -1363.2239    458.05701    422.33328   -259.07176    36751.022 
   54900    306.28547    -1351.091    444.49671    480.22058    384.32951    36751.022 
   55000    293.74875   -1328.8058    461.65115    462.89575     -195.081    36751.022 
   55100    293.89159   -1361.9961    470.18445    438.88555   -290.38331    36751.022 
   55200    302.18258   -1326.5536    466.07701    507.76089    364.63455    36751.022 
   55300    292.40017   -1340.4679    447.15969    430.63602    161.85778    36751.022 
   55400    298.75114   -1347.6824    433.26896    438.28705   -114.52715    36751.022 
   55500    308.42403   -1371.6434    461.92521    486.77967    169.42076    36751.022 
   55600    296.21016   -1346.2459     436.1496    431.09903    72.873303    36751.022 
   55700     294.1442   -1348.1857    442.96429     426.6195    303.06422    36751.022 
   55800    292.74882   -1355.3472     434.8408     405.0165   -427.99098    36751.022 
   55900    307.82352    -1360.331    451.77776     485.2256    54.141267    36751.022 
   56000    301.71502   -1377.2435    459.74725     448.6242   -114.55611    36751.022 
   56100    290.20516   -1374.5326    444.59353    384.06648   -548.15856    36751.022 
   56200    300.76223   -1362.6157    462.01395    461.20467   -265.48421    36751.022 
   56300    308.96453   -1341.4274    468.23705    525.75477    134.36557    36751.022 
   56400    295.94537   -1382.1197    448.06893    405.94563    578.65114    36751.022 
   56500     283.5675   -1395.2802    459.52114    348.19218   -500.69869    36751.022 
   56600    294.36693   -1359.4451    453.85598    427.26032   -151.49424    36751.022 
   56700    300.64031   -1356.5949    457.17607    461.83547     239.5629    36751.022 
   56800    289.44182   -1352.5227    460.23694    418.26353   -23.121357    36751.022 
   56900    304.89026   -1386.2968    458.34486    452.54555    126.77091    36751.022 
   57000    302.12986   -1334.1132    454.60555    488.49114    519.57991    36751.022 
   57100     307.0598   -1382.1395    448.21671    456.39804     -98.7392    36751.022 
   57200    311.27598   -1328.4372    475.34643    556.32035    181.66227    36751.022 
   57300    316.59816   -1390.7388     453.3222    496.09255    91.491621    36751.022 
   57400    305.09611   -1428.8419    461.73207    414.31976   -236.37739    36751.022 
   57500    307.24477   -1355.4951    455.99853    491.66179   -66.030954    36751.022 
   57600    294.33579   -1411.9145    446.53667    367.33057     77.61211    36751.022 
   57700    301.77363   -1357.2323    460.56177    469.71539    505.16174    36751.022 
   57800    310.79158    -1362.145    436.67811    481.75089    556.16616    36751.022 
   57900    301.30021   -1392.0467    437.21156    409.40721    496.65861    36751.022 
   58000    309.19256   -1357.2997    448.77835    491.45627    505.92768    36751.022 
   58100    292.29531   -1369.5576    439.14505    393.05689    538.10837    36751.022 
   58200    297.73271     -1357.59     453.6785    444.17773    -29.51655    36751.022 
   58300    299.93284   -1359.6766    429.67276    428.04723   -169.85102    36751.022 
   58400    293.03741   -1344.7455    461.56935    443.65339    150.13229    36751.022 
   58500    293.83145   -1367.6818    431.65762    394.40063   -571.89973    36751.022 
   58600    303.61004   -1358.8448    454.22492    470.08099   -529.38183    36751.022 
   58700     288.5282    -1383.584    433.27802    356.10656   -176.39605    36751.022 
   58800    302.92157   -1337.1307    452.15412    486.60697    38.147731    36751.022 
   58900    298.01349   -1352.9236    450.81655     447.2535   -425.19826    36751.022 
   59000    301.09921    -1362.498    454.52305     455.3573   -238.23236    36751.022 
   59100     294.1324   -1373.7995    468.99059    426.97861   -430.66265    36751.022 
   59200    294.18562    -1329.729    474.17403    476.47356    197.98845    36751.022 
   59300    290.82843     -1342.58    444.74447     418.9921    472.23174    36751.022 
   59400    294.16681   -1328.7627    454.12025    457.30085   -245.39561    36751.022 
   59500    296.89914     -1347.67    477.38333    474.02822   -104.48524    36751.022 
   59600    293.74441   -1356.5317    464.39732    437.89639    -179.2779    36751.022 
   59700    312.40145   -1350.7849    449.92544    513.64761   -221.33421    36751.022 
   59800     296.4364   -1349.0026     480.7878    474.00492   -283.06529    36751.022 
   59900    312.02694   -1336.8833    447.01624    522.94429    397.55204    36751.022 
   60000    299.44308   -1340.7222    465.29047    480.40176    484.43832    36751.022 
   60100     295.0521   -1366.7956    472.51443    441.67063    74.583873    36751.022 
   60200     300.3922   -1360.0464    481.69899    481.78361    158.31326    36751.022 
   60300    294.40504   -1364.3701    463.39563    432.04751   -516.91478    36751.022 
   60400    305.09335   -1395.4715    453.96288    439.90846   -300.77378    36751.022 
   60500    312.44149   -1384.4996    474.33583    504.52457    292.66381    36751.022 
   60600    311.25472   -1382.9614    479.85217    506.20564    128.16318    36751.022 
   60700    305.74703   -1335.4166    502.07699    551.03725    383.25103    36751.022 
   60800    296.81604   -1313.6238    485.65841    515.97329    206.49576    36751.022 
   60900    295.12277   -1321.2243    481.50295    496.55042    146.74571    36751.022 
   61000    305.26557   -1326.6922    444.81249    500.31718    143.17744    36751.022 
   61100    306.08975   -1337.6204    492.75103    541.05931    578.23625    36751.022 
   61200    304.51666   -1339.1376     474.3354    514.00372    144.08096    36751.022 
   61300    296.70945   -1339.2459    464.62684    468.83699    93.828628    36751.022 
   61400    301.66062   -1306.4979    458.02393    517.40025   -95.468979    36751.022 
   61500    295.87957   -1341.0108    499.23556    497.92324   -361.81915    36751.022 
   61600    299.44849   -1354.5101    459.37997    460.72786   -75.556028    36751.022 
   61700    305.87815   -1328.8356    465.64512    521.78002    113.43386    36751.022 
   61800    288.16877   -1318.9019    452.57438    438.45758   -252.64582    36751.022 
   61900    295.92128   -1310.4205     440.8286    470.29546   -107.00218    36751.022 
   62000    297.31351    -1333.606    461.63075    474.21589   -16.795092    36751.022 
   62100    307.82098   -1366.7902    476.37184    503.34896    163.13533    36751.022 
   62200     299.4668   -1358.9073    481.53736    478.57091   -527.99712    36751.022 
   62300    296.70863   -1340.7998    483.63357    486.28608   -179.49426    36751.022 
   62400    304.32028   -1337.5405    476.90127    517.27749    -219.0999    36751.022 
   62500    303.12465   -1325.9867    464.33089     510.8473   -321.51905    36751.022 
   62600    307.04224   -1348.5197    451.14552    492.86718   -337.58232    36751.022 
   62700    300.15857   -1382.9822    468.45146    444.54235   -509.02892    36751.022 
   62800    314.68452   -1325.2176     454.1456    553.77248    226.96078    36751.022 
   62900    301.56811   -1330.8185    467.55577    502.19254   -115.11137    36751.022 
   63000      297.614   -1370.5232    460.37469    437.40317   -141.74238    36751.022 
   63100    294.76667   -1374.7318    440.10678    400.03441   -212.89804    36751.022 
   63200    306.64473   -1386.7636    448.76425    450.44215   -559.22324    36751.022 
   63300    299.55599    -1373.808    479.54692    462.08366    381.89237    36751.022 
   63400     312.9224   -1387.8679    458.74983     487.7478    605.44233    36751.022 
   63500    304.80762   -1324.1387    461.17148    517.15609    372.31912    36751.022 
   63600    293.37447   -1369.3039    472.86746    431.91927    79.454673    36751.022 
   63700    313.77312   -1387.2916    462.25208    495.67825    60.600825    36751.022 
   63800    302.79787   -1397.4095    476.86567    450.47961    45.186992    36751.022 
   63900    288.65666    -1411.963     497.0937     392.1249   -297.00038    36751.022 
   64000    305.42283   -1425.7674    490.18423    447.32579   -181.14317    36751.022 
   64100     293.6461   -1411.3588    489.89939     408.1262   -261.16988    36751.022 
   64200    293.94087   -1369.1914    468.12159     429.8505    9.9592443    36751.022 
   64300    284.90495   -1407.2595    478.92861    361.67614   -182.33327    36751.022 
   64400    303.04441   -1394.4917    460.30543    437.95355    401.63705    36751.022 
   64500    303.48428   -1372.7667    502.60095    503.96569    371.92757    36751.022 
   64600    288.39127   -1361.4923    481.91446    426.21468    863.67312    36751.022 
   64700    289.76782   -1375.4969     448.2573    384.78578    621.29012    36751.022 
   64800    298.71756   -1371.4389    475.21015    456.31964   -443.27332    36751.022 
   64900     303.7015   -1376.4986    462.82918    461.44557   -761.31658    36751.022 
   65000    293.09525   -1377.6024    469.53781    419.02684   -520.39482    36751.022 
   65100    303.24693   -1383.1871    455.65935    445.52899     285.7984    36751.022 
   65200    298.43832   -1358.4667    473.90957      466.727   -201.58662    36751.022 
   65300    295.34217   -1359.3555    494.09239    472.00206     326.9371    36751.022 
   65400    307.45228   -1416.4074    481.71151    457.40206    102.06767    36751.022 
   65500     300.3841   -1376.2575    482.36528     466.2021    -210.2723    36751.022 
   65600    290.45411   -1375.3148    480.22551    420.04347    24.771039    36751.022 
   65700    302.61888   -1373.8124    465.60503     462.0057    198.75891    36751.022 
   65800    300.52566   -1332.4174    457.03062    485.34844    -17.69869    36751.022 
   65900     295.4804   -1382.0716    511.32998    467.14943  -0.96796194    36751.022 
   66000    304.63036   -1376.2718    489.72606    492.77502    762.26477    36751.022 
   66100    295.90924    -1413.768    471.77798    397.84275    463.97901    36751.022 
   66200    299.54988   -1367.6815    496.85046    485.48603    948.28706    36751.022 
   66300    295.74708   -1367.2777     482.0704    453.89121    115.76666    36751.022 
   66400    289.94654   -1379.3225    479.56503    413.07711   -121.30626    36751.022 
   66500    311.23576   -1370.9767    476.43091    514.68319     152.9645    36751.022 
   66600    290.40591   -1369.5624    492.84948    438.20165    -232.6229    36751.022 
   66700    294.36978   -1358.7294    468.96721    443.10015   -565.48702    36751.022 
   66800    307.40142   -1371.9332    470.54913    490.48358   -540.17471    36751.022 
   66900    304.36941    -1388.222     489.3931    479.31024   -444.38184    36751.022 
   67000    305.26636   -1399.5033    501.49553    484.19273   -735.68579    36751.022 
   67100    294.17298   -1405.5408    484.23993    410.67037    8.2135074    36751.022 
   67200    307.02486   -1389.2745    465.68676    466.57493    281.14925    36751.022 
   67300    291.02922   -1390.5785    473.77602    400.93436   -63.257179    36751.022 
   67400    297.87571   -1385.9196    478.55498    441.37205   -50.257158    36751.022 
   67500    304.99027   -1421.3516    481.01385    440.61259    12.431907    36751.022 
   67600    290.97935   -1401.7389    452.48352    368.25562   -9.2639336    36751.022 
   67700    299.58172    -1382.871    450.57586    424.16605     41.73553    36751.022 
   67800    311.30531   -1395.6818    460.39243    474.25446   -22.250427    36751.022 
   67900     307.5096   -1362.8261    507.82647    537.35786   -116.89202    36751.022 
   68000    298.41563   -1382.0236    470.66674    439.82444   -302.17276    36751.022 
   68100    293.56615   -1384.4912     472.9877    417.72016    -82.37634    36751.022 
   68200    293.51399   -1408.1333    469.15576     390.0099    270.71915    36751.022 
   68300    303.21211   -1352.3661    474.30939    494.84239   -13.174453    36751.022 
   68400    290.23658   -1369.7871    485.43668    429.79744    271.02814    36751.022 
   68500    297.12418    -1396.303    462.92787    411.95878    140.44155    36751.022 
   68600    298.02468    -1379.088    464.54791    434.87113   -660.36513    36751.022 
   68700    293.03497   -1334.4358     490.0825    482.46524    -95.06482    36751.022 
   68800    300.16963   -1364.7712    478.25757    472.60961    369.86381    36751.022 
   68900     301.0876   -1386.5144    491.63796     468.4032    290.45168    36751.022 
   69000    289.68516    -1397.246    476.77033    391.17539   -515.24199    36751.022 
   69100    288.29376   -1357.3313    487.41156    435.43126   -846.09435    36751.022 
   69200    295.69736   -1362.9077    483.65637    459.62208    -96.46386    36751.022 
   69300    297.73963   -1354.0752    493.05055    487.09585    251.40153    36751.022 
   69400    299.86894   -1362.3804    484.55521    479.93654    605.60766    36751.022 
   69500    303.86814   -1370.7969    459.44243    464.51505    477.78902    36751.022 
   69600    310.24292   -1377.4514    479.00934    506.29153    382.21954    36751.022 
   69700    292.87493   -1354.1171    489.94287    461.91966    396.06552    36751.022 
   69800    293.94336   -1325.3754    477.61852    483.17475     716.5407    36751.022 
   69900    293.15907   -1336.0267    498.13997    489.49371    392.81312    36751.022 
   70000    302.08499   -1343.4046    485.12032    509.51138    236.84455    36751.022 
   70100    296.03673   -1368.9271    474.78838     446.2713    408.90431    36751.022 
   70200    300.79105   -1363.2281    480.29038    478.99917    48.164281    36751.022 
   70300    307.48747   -1325.5103    484.48634     551.2333   -22.075155    36751.022 
   70400    301.73257   -1320.3665    489.16294    534.99637   -13.084648    36751.022 
   70500    296.01326     -1365.51    456.81054    431.60438    189.51165    36751.022 
   70600    307.05365   -1379.6351    471.27017    481.92811    187.26734    36751.022 
   70700    294.41123   -1366.2578    483.40276      450.195    209.01715    36751.022 
   70800    292.50267    -1335.675    467.08876    455.82211    63.523059    36751.022 
   70900     311.0979   -1356.7167    448.30863    500.19672    445.46639    36751.022 
   71000    294.62033   -1326.8476    472.56634    479.71552    575.24116    36751.022 
   71100    300.65333   -1372.3855    472.73674    461.66455    583.99126    36751.022 
   71200    298.93871   -1347.8866    483.12678    488.78994    49.458942    36751.022 
   71300     306.5992   -1361.4496    501.34186     528.1276    129.23699    36751.022 
   71400     296.2576   -1298.9254    486.67309    529.15782   -180.58512    36751.022 
   71500    294.30937   -1349.9497    460.62979    443.26889   -116.76797    36751.022 
   71600    297.81134   -1358.5184    491.98453    481.91132    176.34051    36751.022 
   71700    309.38562     -1378.01    462.27289    485.11473     306.2439    36751.022 
   71800    303.79616   -1334.5706    477.32314    518.29608    472.33816    36751.022 
   71900    312.96041   -1322.2696    493.05974    587.82808   -185.33666    36751.022 
   72000    304.10581   -1343.2789    470.53936    504.20614   -205.78022    36751.022 
   72100      301.797    -1343.056    486.77833    510.21405   -94.417597    36751.022 
   72200    298.65622   -1354.2913    483.44745    481.42688   -434.21752    36751.022 
   72300    294.03782   -1387.0598    444.43833    388.73778   -222.15937    36751.022 
   72400    298.70859   -1357.7028    469.45348    464.25851   -35.422327    36751.022 
   72500    297.61914   -1374.4574    463.88298     437.0005   -47.223047    36751.022 
   72600    307.15938    -1361.547    477.97747     507.2022    521.91066    36751.022 
   72700     303.5023   -1376.3053    454.93605    452.84373   -249.35926    36751.022 
   72800    290.95307   -1340.5194    473.85718    450.72981   -256.24955    36751.022 
   72900    300.33004   -1348.7772    455.03859    466.11089    46.059084    36751.022 
   73000       306.33   -1371.7756    483.90795    499.14877    416.67933    36751.022 
   73100    300.47073   -1369.6159    471.50276    462.37336    287.24331    36751.022 
   73200    294.70496   -1373.1618    481.68237    442.90057   -20.274034    36751.022 
   73300    302.78899   -1344.5474    481.93943    508.37528    367.72006    36751.022 
   73400    293.20126   -1331.3344    482.93274    479.16975    -38.34341    36751.022 
   73500    308.03072   -1333.0791    461.28382    522.92172    360.49506    36751.022 
   73600    301.14535   -1363.0175    499.89415    500.41773   -343.07039    36751.022 
   73700    286.85004   -1378.4946    481.70556    402.02501   -759.48459    36751.022 
   73800    296.52045   -1361.1448    480.68865    462.14413    78.194217    36751.022 
   73900    301.56557   -1368.1715    486.17485    483.44719    43.902093    36751.022 
   74000    289.13562   -1344.9496     461.4438    425.65706   -15.732698    36751.022 
   74100    307.05497   -1348.1684    481.15563    523.28628   -441.80045    36751.022 
   74200    285.87975   -1379.0471    475.05413     390.4278    335.89487    36751.022 
   74300    305.42993   -1314.5459    473.48671    541.88187    433.38048    36751.022 
   74400    311.45966   -1326.0247    464.34444    548.56255    603.16413    36751.022 
   74500    305.82066   -1350.5245    492.90078    527.08654    412.44774    36751.022 
   74600    305.46306   -1358.0806    472.84466    497.85512    146.33445    36751.022 
   74700     295.8773   -1390.6635    458.41888     407.4435   -37.778975    36751.022 
   74800    304.54474   -1375.4267    478.73118    482.23752    384.05595    36751.022 
   74900    304.26199   -1350.9132    460.04447    486.78406   -223.33506    36751.022 
   75000    294.08305   -1327.9635    486.87441    490.47504   -426.70564    36751.022 
   75100    290.85768     -1365.47    524.36251    475.85258   -481.84751    36751.022 
   75200    300.90777   -1359.4564    478.08311    481.09211    2.3540403    36751.022 
   75300    294.37706   -1369.5426     504.2178    467.57052   -128.70119    36751.022 
   75400     287.2219   -1346.4191    509.94836    464.02711    42.214691    36751.022 
   75500    301.60829    -1351.425    478.91028    493.12254    87.319452    36751.022 
   75600    297.57287   -1395.4683    473.13662     425.0338   -82.026844    36751.022 
   75700    299.64357   -1391.3711    472.09988    437.47007    88.721062    36751.022 
   75800     296.7173   -1366.0833     473.0477    450.45592    180.99706    36751.022 
   75900    302.88542   -1383.8578    491.21182    478.77396    190.48284    36751.022 
   76000    298.84043   -1367.4604    474.96026    460.60458     342.5605    36751.022 
   76100     296.7002   -1342.6069    492.18696    492.99418    361.54555    36751.022 
   76200    293.80139   -1376.3914    483.18709    437.08443    93.201648    36751.022 
   76300    305.63575   -1362.2558    456.84891    478.46611    381.23596    36751.022 
   76400    291.94619   -1337.4832    463.34245    447.74798    872.31918    36751.022 
   76500    313.51601   -1320.3907    470.12769    569.29061    256.36815    36751.022 
   76600    300.54296   -1384.0383    462.53695    439.31221    185.89656    36751.022 
   76700     295.3333   -1378.6489    502.43312    461.00925   -64.109798    36751.022 
   76800    295.25251   -1383.1705    474.10867    427.79735    28.125701    36751.022 
   76900    306.87743   -1340.8576    479.21892    527.85648   -562.54401    36751.022 
   77000    304.92035   -1357.4063    475.53408     498.7615     178.7901    36751.022 
   77100     300.9846   -1345.8607    470.06237     487.0149    448.05272    36751.022 
   77200    298.19132   -1338.7564    481.45854     492.8679    297.45835    36751.022 
   77300    293.45033   -1331.9311    470.79016     467.5583    114.56003    36751.022 
   77400    300.96231   -1314.7282    509.05292    557.03706    486.46014    36751.022 
   77500    299.63172   -1349.9808     506.1348    512.84164      470.277    36751.022 
   77600    290.29326   -1342.9217    511.76704    483.24978    196.31438    36751.022 
   77700    291.65434   -1385.8551    491.74157    426.45373   -212.90902    36751.022 
   77800    304.82329   -1374.9144    507.07946    512.35939   -265.03418    36751.022 
   77900    304.94963   -1356.2006    500.52927    525.09502   -203.28018    36751.022 
   78000    302.91261   -1379.1755    485.79643    478.16398   -97.676031    36751.022 
   78100    306.33335   -1372.6105    473.00084    487.42192   -256.21991    36751.022 
   78200     292.8978   -1378.4986    478.04096    425.73983     -367.666    36751.022 
   78300    304.95793    -1403.348    485.48093    462.93687   -625.78743    36751.022 
   78400    295.60899   -1428.2636    482.68126    392.89098   -536.61503    36751.022 
   78500    303.32249   -1424.8802    471.45807     419.9767   -446.92719    36751.022 
   78600    294.24522   -1410.4305    476.40857    398.27643   -362.49255    36751.022 
   78700    296.17574   -1437.8345     480.3923    383.59726   -541.42018    36751.022 
   78800    298.74095   -1371.7096    481.01652    461.96127     387.9085    36751.022 
   78900    300.78789   -1377.0702    509.68821    494.54058    36.721248    36751.022 
   79000      294.499   -1356.8599    494.30838    470.89594    239.14943    36751.022 
   79100    295.91736   -1435.8941    480.42926    384.40471    191.93081    36751.022 
   79200    301.17222   -1396.1655    479.07422    446.57152    317.08676    36751.022 
   79300    298.67318   -1393.1489    483.11813     442.3167    223.96417    36751.022 
   79400    301.23084    -1434.899     476.1235     405.1527   -231.83008    36751.022 
   79500    298.37653   -1364.9584    474.00471    460.05064     89.67456    36751.022 
   79600    302.12426   -1364.9126    466.87283    469.93366    -163.8733    36751.022 
   79700    301.28676   -1371.0444    488.83718    481.97419    -142.6199    36751.022 
   79800    296.49932   -1421.0546    463.74258    385.19258    254.31286    36751.022 
   79900    302.68464   -1373.3493    511.75709    508.91855    128.61714    36751.022 
   80000     291.8755   -1361.7217    523.86844    483.71533   -53.637352    36751.022 
   80100    292.70976   -1338.1304    504.23358    491.44916    30.361945    36751.022 
   80200    300.01944   -1404.8164    468.69427    422.32108    101.10188    36751.022 
   80300    296.73094   -1400.3928    486.27331    429.43379   -397.40059    36751.022 
   80400    307.44606    -1444.634    490.64487    438.08062   -143.59497    36751.022 
   80500    310.43022   -1419.4006    494.57657    480.75763   -120.57063    36751.022 
   80600    303.76546   -1397.3845    474.11604    452.13607   -392.29479    36751.022 
   80700    294.16606   -1367.2812    491.16858    455.82732   -582.22943    36751.022 
   80800    306.48079   -1378.1165    454.88299    464.46561   -263.06575    36751.022 
   80900    292.09171     -1354.53    480.55859    448.57613    -2.525366    36751.022 
   81000    307.31389   -1375.6683    482.60685    498.40987   -210.28747    36751.022 
   81100    300.02065   -1384.4899    488.83116    462.78992     166.9714    36751.022 
   81200    304.55118   -1315.8946    481.62162    544.68928    485.17035    36751.022 
   81300    301.97263   -1331.1815    473.24938    509.35483    260.21247    36751.022 
   81400    309.40742   -1374.7692    485.68825    511.86955    146.58553    36751.022 
   81500    307.38745   -1368.4309    466.68531    490.05883   -85.866467    36751.022 
   81600    301.15255   -1372.2731    480.15735      471.458   -518.18181    36751.022 
   81700    311.03083   -1394.5995    462.44591    476.14749   -120.96595    36751.022 
   81800    288.65919   -1388.5272    463.09865    381.57714    196.14798    36751.022 
   81900     299.9171   -1411.2658    476.60357    423.31755   -87.257749    36751.022 
   82000    304.26996   -1388.5292    483.83446    472.99416    20.168729    36751.022 
   82100    305.67361   -1361.9158    483.38261    505.51124    170.00216    36751.022 
   82200    296.74191   -1349.5485    470.57859    464.63304   -256.12289    36751.022 
   82300     304.1145   -1346.9772    493.85082    523.85857  -0.79897127    36751.022 
   82400    295.04229   -1386.9615    487.27766     436.2235    346.20531    36751.022 
   82500    303.35615   -1370.1608    484.68673    488.07719   -16.857657    36751.022 
   82600    300.86091   -1403.0715    442.60778    401.78953     113.8124    36751.022 
   82700    296.42671   -1422.3643    460.54946    380.36104   -71.308514    36751.022 
   82800    302.94709   -1383.9964     480.7485    468.45121    133.02681    36751.022 
   82900    304.35557   -1400.9786    481.06475    458.16262   -108.36506    36751.022 
   83000    286.37138   -1423.2833    485.51489    358.87841   -79.520637    36751.022 
   83100    288.76075    -1434.588    495.58936    368.46683    431.44127    36751.022 
   83200    288.11177   -1397.5329    493.20892    400.20303   -174.46492    36751.022 
   83300    293.32937   -1388.9753    496.56253    435.73877     462.4074    36751.022 
   83400    300.53695   -1393.4391    481.02633    448.37361    671.92999    36751.022 
   83500    292.86217   -1420.0896    503.02749      408.974    323.23883    36751.022 
   83600    295.44246   -1371.2824      472.699     439.1359    92.940637    36751.022 
   83700    293.04274   -1384.8968    495.91872    437.87561   -126.67962    36751.022 
   83800    306.76249   -1423.0328    503.41193    469.35388    -1238.271    36751.022 
   83900     296.6551   -1405.7554    472.76037    410.21489   -718.03412    36751.022 
   84000    297.29943   -1378.4658    451.55134    419.21289    -618.0905    36751.022 
   84100    294.54639   -1397.8253    503.22029      439.057   -501.81407    36751.022 
   84200    293.36834    -1385.836    497.89523    440.38725   -1088.3266    36751.022 
   84300    302.46194   -1398.0478    466.65969    438.11435   -864.29873    36751.022 
   84400    295.91354   -1370.7437    462.46224     431.5708    -536.6162    36751.022 
   84500     302.5348   -1388.2854    512.34747    493.89437   -698.24205    36751.022 
   84600    297.58995   -1352.1362    496.48034    491.78694   -244.35875    36751.022 
   84700    295.85473   -1389.1208    472.51202     422.9772   -961.54681    36751.022 
   84800    311.88602   -1298.9816    486.47912    599.67078   -722.18439    36751.022 
   84900    296.98091   -1303.2464    498.33554    539.77433   -610.62114    36751.022 
   85000    293.41589   -1331.4315    485.36427    482.47601   -345.31139    36751.022 
   85100    307.38508   -1335.8263    455.52768    511.49501    434.85031    36751.022 
   85200     302.1575   -1326.3327    482.91965    524.71091    700.39461    36751.022 
   85300    297.15594   -1349.9114    482.07639    477.64264    505.96748    36751.022 
   85400    289.56244   -1377.2733    482.49198    416.31415     727.3245    36751.022 
   85500    297.39999   -1325.8736    499.37897    520.08804   -57.892326    36751.022 
   85600    304.82216   -1333.8187    490.36311    536.73361   -94.788653    36751.022 
   85700    295.42792    -1326.333    495.68828    507.00873    734.27867    36751.022 
   85800    301.20397   -1331.4288    486.46807    518.84579    668.22325    36751.022 
   85900    303.54252   -1347.2198    486.30035    513.47568    -56.53255    36751.022 
   86000    300.52508   -1327.5974    508.20811    541.34333   -525.64877    36751.022 
   86100    306.73794     -1345.86    484.02838    527.03185   -217.15114    36751.022 
   86200    300.94996    -1348.148     496.3083    510.81673   -627.39082    36751.022 
   86300    301.36216   -1355.4316    497.77695    506.86819   -487.80872    36751.022 
   86400     299.1861   -1379.7625    485.54227     460.4497   -934.90089    36751.022 
   86500    291.13336   -1398.3382     486.9499    406.82006   -321.65313    36751.022 
   86600    306.38927   -1432.5833    459.50673    414.20823    124.96621    36751.022 
   86700    296.43301   -1394.0118    495.29239    443.48495    307.51328    36751.022 
   86800    299.27177   -1381.8548    460.74255    433.94552     328.8177    36751.022 
   86900    304.66679   -1407.8305    498.30986    469.96503    228.53311    36751.022 
   87000    290.91332   -1391.7382    478.48336     403.9572    104.02003    36751.022 
   87100    298.63821   -1430.8159    482.30099    403.67425   -10.924499    36751.022 
   87200    290.38609   -1418.2264    475.86315    372.46149    215.68263    36751.022 
   87300    309.47262   -1379.6152    498.83053    520.46111    368.71981    36751.022 
   87400    303.79564   -1396.2347    527.04522    506.35177    327.28207    36751.022 
   87500    289.71871   -1447.4197    464.12815    328.51149    250.95926    36751.022 
   87600    305.12231   -1416.7548    477.15124    441.94467    243.14301    36751.022 
   87700    296.81425   -1421.6748      481.246    403.50174    253.91057    36751.022 
   87800    302.28901   -1386.7456    471.76072    453.73455    325.95328    36751.022 
   87900     304.3705   -1398.5986    469.43761    448.98312      312.803    36751.022 
   88000    309.60687   -1383.0184    455.39792    474.23311   -9.0119153    36751.022 
   88100    292.64228   -1391.0557    492.23628     426.2211   -425.05278    36751.022 
   88200    303.04338   -1355.8379    480.81199    497.10916    -81.60359    36751.022 
   88300    295.22317   -1354.9415    493.62451    475.40933    135.81093    36751.022 
   88400    296.69189   -1344.0378    475.70903    475.04769    165.91483    36751.022 
   88500     305.4216   -1376.2228    497.93493    504.61549    107.41659    36751.022 
   88600     301.1285   -1326.3426    484.80474    521.92694    1.3490903    36751.022 
   88700    293.16097   -1341.2399    491.51571    477.66486   -66.195227    36751.022 
   88800    296.91281   -1325.6444    492.48656    511.21899    249.09037    36751.022 
   88900    305.80928   -1342.9078    474.91059    516.66146   -211.80452    36751.022 
   89000    285.90301   -1334.6912    474.19543     434.0303   -329.81052    36751.022 
   89100    303.44446   -1401.1219    496.08348    468.91271   -619.00338    36751.022 
   89200     295.1415   -1342.7757    484.89823    478.47911   -985.62527    36751.022 
   89300    307.60934   -1350.1462    492.33907    535.00201   -419.61275    36751.022 
   89400    303.91556   -1323.1706    466.78663    519.70022   -385.99789    36751.022 
   89500    301.74074   -1347.5185    460.85831    479.57678   -309.29113    36751.022 
   89600    297.80384   -1387.5407    495.27218    456.14272   -232.77007    36751.022 
   89700    293.96669   -1372.7768    478.90606    437.16651    420.91345    36751.022 
   89800    306.89322   -1372.6697    477.01498    493.91187   -148.02643    36751.022 
   89900    295.47751   -1396.5082    473.64015    415.00992   -422.53641    36751.022 
   90000    293.13582   -1372.9287    489.34518    443.69167   -410.62037    36751.022 
   90100    300.59254   -1339.0266    496.55803     518.5695    -222.6811    36751.022 
   90200    291.73409   -1386.8065    500.72881     434.8506   -234.30859    36751.022 
   90300    309.67478   -1323.7093    491.66275    570.11453    65.364752    36751.022 
   90400    312.39392   -1411.6485    458.57682    461.40128    196.14942    36751.022 
   90500    300.77653   -1353.6364    473.93497    482.16969   -25.440468    36751.022 
   90600    301.08503   -1371.6146    448.10399    439.75736   -129.46833    36751.022 
   90700    305.28031    -1354.693    477.19445    504.76505     282.9025    36751.022 
   90800    296.79625   -1384.4938    499.21899    458.57423    17.215043    36751.022 
[...]
  984500    307.52058   -1425.4892    494.78736    461.70535    357.58525    36751.022 
  984600    296.31486   -1433.5117     519.5076    427.66528     339.6267    36751.022 
  984700    303.64507   -1444.6092    509.47773    439.72803    789.96164    36751.022 
  984800    301.45502    -1429.638     498.8124    434.11763    135.76998    36751.022 
  984900    302.72766    -1410.005    520.77858    481.47914    371.42184    36751.022 
  985000    296.59843   -1428.2928    512.19602    426.85653    134.58622    36751.022 
  985100    303.18474   -1450.4184    525.93459     448.2913   -423.47847    36751.022 
  985200    296.46378   -1463.0816    530.20439    409.46644    376.17767    36751.022 
  985300    299.09895   -1434.6471    493.00874      412.637    371.13736    36751.022 
  985400    299.56384   -1443.0575    536.74823      450.071     288.9667    36751.022 
  985500    294.13716   -1447.9964    535.01101    418.82374    -659.4324    36751.022 
  985600    311.33625   -1395.4447    473.44551    487.68476   -154.09137    36751.022 
  985700    301.84212   -1437.8266    532.80383    461.67322   -236.90129    36751.022 
  985800    294.56337   -1437.2198      506.366    402.88505   -1014.4284    36751.022 
  985900    296.16412   -1482.9425    517.34906     375.3934   -426.36033    36751.022 
  986000    299.27814   -1464.3255    516.53084    407.29197   -578.90915    36751.022 
  986100    309.65138   -1473.1799    501.15536    430.03054   -760.00687    36751.022 
  986200    293.30394   -1427.4805    499.78913    400.34498   -730.44337    36751.022 
  986300    305.27941   -1456.3144    509.44278    435.38792   -353.89926    36751.022 
  986400    298.99881   -1474.4944    494.65053    373.97799   -626.84244    36751.022 
  986500    298.25481   -1479.8526      469.797    340.39762   -828.61169    36751.022 
  986600    297.14878   -1443.8607    504.80788    406.39242    40.170199    36751.022 
  986700    314.78863   -1471.7692    496.79813    450.34472   -7.8983916    36751.022 
  986800    310.71118   -1469.6771    488.53431    425.71098    419.15254    36751.022 
  986900    290.68947   -1433.8715     495.0786    377.40554   -695.28936    36751.022 
  987000    301.73356   -1459.4528    523.64963    430.40122   -204.59046    36751.022 
  987100    295.54538   -1437.1952    491.54031    392.53043     376.0901    36751.022 
  987200    303.23721   -1427.5832    516.74815    462.17771    241.10356    36751.022 
  987300    300.67134   -1438.2676    486.37093    409.49821    432.11097    36751.022 
  987400     297.7371   -1464.4713     494.1975    377.83528     443.8746    36751.022 
  987500    310.00544   -1464.2234    524.83773    464.27261   -512.77607    36751.022 
  987600    296.47733   -1480.0863    467.39957    329.71827   -998.07632    36751.022 
  987700    304.53767   -1467.7113    512.65666    423.84642   -342.43737    36751.022 
  987800    297.90091   -1446.5513    506.94851    409.24798   -519.80153    36751.022 
  987900    298.78221   -1463.8279    498.80174    387.81502   -317.86452    36751.022 
  988000    303.88095    -1506.317    498.31931    367.92979   -323.63962    36751.022 
  988100    307.49936   -1492.7588     499.4178     398.9701   -14.263347    36751.022 
  988200    301.64311    -1515.057    497.65066    348.38858   -154.57159    36751.022 
  988300    309.04709   -1500.7155    485.37739    383.98095    348.93634    36751.022 
  988400     306.9708   -1495.7729    528.47392    422.61889   -71.291717    36751.022 
  988500    289.04395   -1468.2773    510.07439    350.54481   -410.95304    36751.022 
  988600    295.91845   -1466.2076    503.12482    376.79174   -340.84719    36751.022 
  988700    299.13991   -1488.2322    509.70693    375.93545    203.76175    36751.022 
  988800    296.11004   -1512.1378    501.43244    330.03662    136.93115    36751.022 
  988900    297.95507   -1517.8989    509.37151    340.56862   -70.938775    36751.022 
  989000     309.2865   -1483.8861    498.41082    414.92778     264.2879    36751.022 
  989100    305.41287   -1491.7481    516.39416    407.50991    58.798443    36751.022 
  989200    292.61856   -1467.8418    497.80345    354.89475    612.00833    36751.022 
  989300    307.09186   -1486.1557    517.67205    421.98241    417.01789    36751.022 
  989400    303.75235   -1480.5648    492.49514    387.27558    659.69455    36751.022 
  989500    306.34669   -1506.7031    508.61357    389.00248     655.6754    36751.022 
  989600    308.22382    -1472.879    517.39349    440.10582    135.66582    36751.022 
  989700     303.9065   -1500.5412    514.40028     389.9023    368.51653    36751.022 
  989800    293.96376   -1478.0241     467.3357    320.33555    444.18436    36751.022 
  989900    298.11165   -1436.9993    513.37598    426.18166    277.86965    36751.022 
  990000    307.94118   -1421.3598    509.15001    482.10182    683.60763    36751.022 
  990100     307.2682   -1425.8991    517.82362    483.18897    584.32788    36751.022 
  990200    304.16424   -1419.4922    493.66155    451.37958    447.24288    36751.022 
  990300    308.95525   -1433.4455    540.57367    506.03127    62.377359    36751.022 
  990400    294.04965   -1422.4893    512.73815    421.66172    -208.5594    36751.022 
  990500    298.64357   -1416.7906    480.04955    415.47233    401.72067    36751.022 
  990600    300.92059   -1429.5912    511.02807    443.96034   -68.643358    36751.022 
  990700    293.23696   -1382.6397     505.1431    450.23651    600.80788    36751.022 
  990800    309.17853   -1366.8373    511.05009    544.12695    232.20673    36751.022 
  990900    302.37919   -1411.6231    498.41826    455.92289    367.77363    36751.022 
  991000    302.28585   -1455.9769    527.61738    440.34561    433.08166    36751.022 
  991100    293.98757   -1468.9097    505.00302    367.22503    453.50442    36751.022 
  991200    297.55606   -1480.6787    532.43481    399.04552   -254.20188    36751.022 
  991300    301.53191   -1439.2175    514.83759    440.91154   -124.79789    36751.022 
  991400    297.03186   -1410.2573    513.06178    447.72036   -349.34596    36751.022 
  991500    298.20327   -1425.3392    479.07214    403.95272   -182.32197    36751.022 
  991600    298.93927   -1453.8589    516.94412    416.63755     79.90345    36751.022 
  991700     308.1916   -1461.1963    475.92672    410.17593    331.04876    36751.022 
  991800    304.55492    -1433.671    507.14365    452.45179    700.57026    36751.022 
  991900    306.41929   -1415.4896    498.01593    469.94709    296.76366    36751.022 
  992000     293.1255   -1414.1908    510.33654    423.37422   -66.507121    36751.022 
  992100    305.83877   -1404.5893    514.25244    494.45537   -142.73517    36751.022 
  992200    295.98593   -1422.8555     502.2564    419.58092   -813.98424    36751.022 
  992300    304.95164   -1418.3078     509.9836    472.45129   -300.58416    36751.022 
  992400    299.28263   -1433.5102    516.38416    437.98099   -171.39673    36751.022 
  992500    300.99948   -1453.6072    510.39447    419.66788   -320.35254    36751.022 
  992600    293.18164   -1414.7235    517.48844    430.24754    61.238903    36751.022 
  992700    295.38462   -1422.8074    473.87326    388.52331    23.097761    36751.022 
  992800    298.37299   -1472.7047    501.17619    379.45975    220.73819    36751.022 
  992900    301.55262   -1434.3726    487.99061    419.00315   -446.92068    36751.022 
  993000    298.19461    -1428.502    506.05743    427.73604    172.21148    36751.022 
  993100    287.90822   -1410.3033    472.59671    365.89879      177.299    36751.022 
  993200    298.28212   -1421.7507    518.97805    447.80419    321.57758    36751.022 
  993300    294.94387   -1433.9794     486.0633    387.54566    448.44553    36751.022 
  993400     292.9995   -1442.1123    528.16417    412.70979    248.38476    36751.022 
  993500     296.8081   -1408.9616    485.71762    420.65871    740.76198    36751.022 
  993600    301.08177   -1425.7205    496.21108    433.74384    926.08377    36751.022 
  993700    292.05638   -1425.6541    524.76693    421.50042    677.28302    36751.022 
  993800    301.91348   -1406.9647    509.74748     469.8019    946.36251    36751.022 
  993900    306.01162   -1393.1264    499.11228    491.56079    752.61976    36751.022 
  994000    303.43145   -1403.9826    513.17213    483.08174    226.96812    36751.022 
  994100    299.39208   -1380.6617    517.18232    492.12314    311.38426    36751.022 
  994200     296.7664   -1389.2073    529.14055    483.64719   -74.936733    36751.022 
  994300    303.12511   -1365.8508    491.57061    498.22499    84.304462    36751.022 
  994400    302.26662    -1417.111    505.67317    457.18023    287.91933    36751.022 
  994500    302.68729   -1388.9879    506.85842    488.39331     378.6064    36751.022 
  994600    291.35642   -1406.8346    501.64465    414.02835    334.73574    36751.022 
  994700    297.81626   -1396.8183    518.28806    469.93725    162.02968    36751.022 
  994800    306.87705   -1378.4915    544.70681    555.70868   -339.56122    36751.022 
  994900    307.92245   -1384.7499    505.85435    515.33125    -159.8406    36751.022 
  995000    317.57218   -1372.3272    484.13005    549.72217    305.28047    36751.022 
  995100    304.19922   -1397.1584    503.45775    483.66795    321.16972    36751.022 
  995200    304.63882   -1406.8921    487.83895    460.30593    109.69206    36751.022 
  995300    290.16423   -1408.5892    492.54723    397.77831    2.1020362    36751.022 
  995400    302.46317   -1361.4236     484.4171    492.50147    5.1450401    36751.022 
  995500    304.33612   -1324.7143     521.7656    575.03972   -117.16993    36751.022 
  995600    292.27257   -1390.4751    510.73788    443.62931   -24.826107    36751.022 
  995700     294.3742   -1411.5722    500.18841    421.49854    293.00767    36751.022 
  995800    300.88814   -1423.9402    488.96176    427.39806    237.03446    36751.022 
  995900     298.0231   -1423.4141    497.19106    423.18102   -537.44745    36751.022 
  996000    308.10963   -1428.1508    504.36603    471.28953    546.33537    36751.022 
  996100    299.10193   -1419.1458    511.67204    446.81507   -123.47978    36751.022 
  996200    293.03527   -1397.3992    500.08567    429.50631   -591.78719    36751.022 
  996300    297.03749   -1413.0359     494.6303    426.53573   -233.97303    36751.022 
  996400    304.31509   -1450.3268    496.78753      424.354    50.795034    36751.022 
  996500    294.48595   -1444.8435    492.71068    381.25557    679.02338    36751.022 
  996600    296.13431   -1415.1027    510.48761     436.2368    286.75181    36751.022 
  996700    290.47893    -1415.782      483.407    382.87015    733.61008    36751.022 
  996800    309.02178   -1433.9323    500.60894    465.88107   -407.87308    36751.022 
  996900    301.57755   -1439.9176    484.56933    410.14985   -534.58731    36751.022 
  997000    307.78777   -1396.5049    491.77182    488.88391   -248.23595    36751.022 
  997100    306.15394   -1414.8532    512.54739    483.91344   -190.67659    36751.022 
  997200     304.6676   -1465.9093    501.66882    415.24886   -134.53894    36751.022 
  997300    306.69626   -1446.7202    515.79325    457.74787   -628.46659    36751.022 
  997400    303.88709   -1439.6707    505.15197    441.43653   -39.548055    36751.022 
  997500    294.80885     -1443.55      515.089    406.38938    497.86118    36751.022 
  997600    300.56847    -1448.967    520.63867    432.60076    631.04066    36751.022 
  997700    297.13461   -1482.5238    522.46837    385.32566    362.54702    36751.022 
  997800    305.33957   -1447.8346     498.3859    433.08322    1144.3017    36751.022 
  997900    304.94463   -1467.9389    502.95996    415.76474    246.00744    36751.022 
  998000    303.59377   -1484.3713    509.43337    399.68931    714.20415    36751.022 
  998100    295.63862    -1465.857     486.2174    358.96784    646.37582    36751.022 
  998200    294.44338   -1485.5743    514.82481    362.44608    278.20051    36751.022 
  998300    317.22773   -1493.6846    482.90628    425.58141    292.39824    36751.022 
  998400    300.96523    -1460.751    473.82832    375.80288    359.80742    36751.022 
  998500    294.23181   -1445.4049     524.3259    411.15863    78.926509    36751.022 
  998600    298.75212   -1441.1771    471.67013    383.19794    644.45019    36751.022 
  998700    308.55882   -1415.9892    520.90279    502.02181    306.44405    36751.022 
  998800    304.57871   -1484.9068    477.14329    371.32335    324.41941    36751.022 
  998900    296.87046    -1494.054    491.18832     341.3194    256.45195    36751.022 
  999000    304.88169   -1476.9746    488.97921    392.46328    524.70558    36751.022 
  999100    294.83648    -1455.681    496.36324    375.65773    214.31253    36751.022 
  999200    291.83508   -1430.8861     502.0097    392.50924   -405.17583    36751.022 
  999300    315.85419   -1406.2928    526.00054    549.84824   -335.02423    36751.022 
  999400    300.10979   -1407.2669    522.52363    474.10899   -600.67768    36751.022 
  999500    302.99954   -1426.6173    490.46728    435.78657   -320.31027    36751.022 
  999600    296.60211   -1443.3114    486.76165    386.42025   -605.60778    36751.022 
  999700    299.73818   -1389.1917    524.73193    492.70989   -505.02202    36751.022 
  999800    311.04984   -1412.8825    509.39015    504.89482   -757.80693    36751.022 
  999900    299.40209   -1407.8333    513.62819    461.44278   -385.29981    36751.022 
 1000000    308.78674   -1371.6408    513.01223     539.5116   -404.02633    36751.022 
 1000100    295.47956   -1442.9494    490.68104    385.61892   -198.46122    36751.022 
 1000200    293.95534   -1400.9833    503.20916    433.21168   -532.76267    36751.022 
 1000300    298.93821   -1400.9263    515.78806    468.40932   -495.09047    36751.022 
 1000400    294.09464   -1407.0241    484.15351    408.74594   -373.56127    36751.022 
 1000500    300.73847   -1364.5625    497.67552    494.81188    -139.5911    36751.022 
 1000600    306.02853   -1400.9567    521.95503     506.6497   -47.064058    36751.022 
 1000700    290.19235   -1349.3419    513.32164    477.92732    28.029752    36751.022 
 1000800    306.26314    -1385.492    498.99744     500.2192    496.20618    36751.022 
 1000900    304.30634   -1391.0088     500.3039    487.14871    674.11265    36751.022 
 1001000     296.8109   -1378.7816    513.29045    478.42421    354.15945    36751.022 
 1001100    295.33963      -1422.3    520.57849    435.53222   -240.67513    36751.022 
 1001200    294.98136   -1423.1891    510.83265    423.27508   -462.41921    36751.022 
 1001300    290.63419   -1415.6327    498.00858    398.32408   -402.42056    36751.022 
 1001400     305.6769   -1398.0642    505.72349    491.71858     469.3021    36751.022 
 1001500    292.48723   -1426.1118    508.77998    407.00658    42.146292    36751.022 
 1001600    304.44382   -1427.7183    481.05523    431.81299    446.89049    36751.022 
 1001700     301.1904   -1390.5836    494.23739     467.3989    526.51457    36751.022 
 1001800    303.68954   -1419.1072    503.77778    459.73139   -137.37098    36751.022 
 1001900    300.72781   -1459.6159    491.68895    393.72359    352.19433    36751.022 
 1002000    292.64113    -1448.231    497.51358     374.3179    40.722277    36751.022 
 1002100    301.38219   -1478.0976    490.85871    377.37459    471.69889    36751.022 
 1002200    304.26595   -1442.1929    508.75645    444.23423   -272.68743    36751.022 
 1002300    302.53091   -1418.1994    516.87817    468.49349    20.527855    36751.022 
 1002400    292.51886   -1412.6077    491.85436     403.7283   -348.95352    36751.022 
 1002500    294.96955   -1441.3164     510.3392    404.60083    285.65705    36751.022 
 1002600    294.05448    -1449.857    508.41588    389.99364    360.74874    36751.022 
 1002700    298.54717   -1412.8686    515.73547    454.64377   -32.475366    36751.022 
 1002800     298.3826   -1435.6428    514.72719    430.11616   -264.11136    36751.022 
 1002900    294.28085   -1418.8399    503.82209    417.44185   -1028.8028    36751.022 
 1003000    303.81656   -1418.2051    493.95503    451.38586   -825.41167    36751.022 
 1003100    308.18011   -1399.8924    497.60273    493.10381   -311.73417    36751.022 
 1003200    305.28898   -1360.9196    511.51562    532.89887   -117.90276    36751.022 
 1003300    298.68595   -1380.5001    511.22789    483.13313    518.15938    36751.022 
 1003400    309.40249   -1394.2126    483.51305    490.22863    526.63766    36751.022 
 1003500    295.23424   -1415.4428    522.25779    443.59151    1151.6995    36751.022 
 1003600     294.1906   -1422.7897    510.87326    420.13458    194.04483    36751.022 
 1003700    300.63843   -1419.0588    518.56503    460.75214    498.99889    36751.022 
 1003800    296.68631   -1398.9878    518.79173    463.15523    411.40474    36751.022 
 1003900      292.418   -1397.3163    511.35739    438.06607   -310.59857    36751.022 
 1004000    304.41274    -1410.881    513.63209    481.08641   -528.41184    36751.022 
 1004100    298.15388   -1411.8107    494.58213     432.7676   -474.00006    36751.022 
 1004200    295.93016   -1431.6279    487.29453    395.59411   -863.74915    36751.022 
 1004300    294.40278   -1408.1204     512.5752    437.46656     -342.479    36751.022 
 1004400    286.75797   -1431.7985     498.8928    365.49148    39.343846    36751.022 
 1004500    302.23753   -1462.3354    514.17581    420.32672   -261.04707    36751.022 
 1004600    294.03234   -1432.6639    504.19366    402.86419   -407.92283    36751.022 
 1004700    309.38339    -1408.835    505.66963    497.67633    254.88983    36751.022 
 1004800    295.53563   -1395.5643    544.21063    486.78747   -277.32653    36751.022 
 1004900    292.27279   -1383.1182    516.99215    457.24143   -735.33283    36751.022 
 1005000    314.54458   -1400.1053    493.70471    517.81028   -769.61585    36751.022 
 1005100    293.11948    -1420.054    490.28288    397.43007    48.053894    36751.022 
 1005200    294.38037   -1397.6132    491.16825    426.46532    200.11633    36751.022 
 1005300    301.56496   -1412.6338    506.84783    459.65505   -239.01738    36751.022 
 1005400     307.7174    -1443.166    476.93704    427.06945   -365.65512    36751.022 
 1005500    289.52276   -1416.7279    475.28126    369.46912   0.71574242    36751.022 
 1005531    301.51811   -1448.8432    469.92929    386.31497   -246.44912    36751.022 
Loop time of 597.446 on 32 procs for 1000000 steps with 1520 atoms

Performance: 144.616 ns/day, 0.166 hours/ns, 1673.792 timesteps/s
100.0% CPU use with 32 MPI tasks x no OpenMP threads

MPI task timing breakdown:
Section |  min time  |  avg time  |  max time  |%varavg| %total
---------------------------------------------------------------
Pair    | 253.55     | 276.62     | 298.49     |  77.8 | 46.30
Bond    | 1.5082     | 1.6463     | 1.8062     |   6.1 |  0.28
Neigh   | 39.086     | 39.182     | 39.264     |   1.1 |  6.56
Comm    | 245.65     | 267.45     | 290.26     |  79.1 | 44.76
Output  | 0.39558    | 0.41043    | 0.82447    |  11.6 |  0.07
Modify  | 8.7939     | 9.0291     | 9.2385     |   3.5 |  1.51
Other   |            | 3.112      |            |       |  0.52

Nlocal:        47.5000 ave          68 max          16 min
Histogram: 1 1 1 6 3 4 2 6 4 4
Nghost:        2041.34 ave        2115 max        1981 min
Histogram: 3 2 6 1 6 6 2 2 3 1
Neighs:        5499.69 ave        9834 max        1650 min
Histogram: 3 0 8 4 3 2 2 8 1 1

Total # of neighbors = 175990
Ave neighs/atom = 115.78289
Ave special neighs/atom = 2.0486842
Neighbor list builds = 49773
Dangerous builds = 0
The system volume is 36751.0224270487
Lattice vectors
33.2473071260781 0 0
0 33.2473071260781 0
0 0 33.2473071260781
Total wall time: 0:10:03
