LAMMPS (29 Sep 2021 - Update 1)
# Test LAMMPS input file for single DeFDe

# Initialize simulation

clear

units real
atom_style full
boundary p p p
dielectric 1
special_bonds dreiding

bond_style harmonic
angle_style harmonic
dihedral_style harmonic
improper_style umbrella
pair_style hybrid/overlay hbond/dreiding/lj 4 9.0 11.0 90 lj/cut 8.50000

# Read data file
read_data frag5.dat
Reading data file ...
  triclinic box = (0.0000000 0.0000000 0.0000000) to (15.000000 15.000000 15.000000) with tilt (0.0000000 0.0000000 0.0000000)
  2 by 4 by 4 MPI processor grid
  reading atoms ...
  1515 atoms
  scanning bonds ...
  4 = max bonds/atom
  scanning angles ...
  6 = max angles/atom
  scanning dihedrals ...
  15 = max dihedrals/atom
  scanning impropers ...
  1 = max impropers/atom
  reading bonds ...
  1015 bonds
  reading angles ...
  528 angles
  reading dihedrals ...
  36 dihedrals
  reading impropers ...
  1 impropers
Finding 1-2 1-3 1-4 neighbors ...
  special bond factors lj:    0        0        1       
  special bond factors coul:  0        0        1       
     4 = max # of 1-2 neighbors
     6 = max # of 1-3 neighbors
     9 = max # of special neighbors
  special bonds CPU = 0.002 seconds
  read_data CPU = 0.017 seconds

# Dreiding potential information

bond_coeff 1 350 1.375
bond_coeff 2 350 1.53
bond_coeff 3 350 1.42
bond_coeff 4 350 1.09
bond_coeff 5 350 0.935
bond_coeff 6 350 0.98

angle_coeff 1 50 109.471
angle_coeff 2 50 120
angle_coeff 3 50 104.51

dihedral_coeff 1 0.0833333333333333 -1 6
dihedral_coeff 2 0.111111111111111 -1 3
dihedral_coeff 3 0.333333333333333 -1 3

improper_coeff 1 40 0

pair_coeff 1 1 lj/cut 0.0951 3.8983
pair_coeff 1 2 lj/cut 0.0857947550844456 3.77835472527395
pair_coeff 1 3 lj/cut 0.0953995283007206 3.64309650983885
pair_coeff 1 4 lj/cut 0.0380199947396104 3.52917391183829
pair_coeff 1 5 lj/cut 0.00308382878902186 3.52806914614779
pair_coeff 2 2 lj/cut 0.0774 3.6621
pair_coeff 2 3 lj/cut 0.0860649754545948 3.53100349192691
pair_coeff 2 4 lj/cut 0.0342998542270955 3.42058613398347
pair_coeff 2 5 lj/cut 0.00278208554864871 3.41951536039831
pair_coeff 3 3 lj/cut 0.0957 3.4046
pair_coeff 3 4 lj/cut 0.0381397430510485 3.29813538230316
pair_coeff 3 5 lj/cut 0.0030935416596516 3.29710294046152
pair_coeff 4 4 lj/cut 0.0152 3.195
pair_coeff 4 5 lj/cut 0.0012328828005938 3.19399984345648
pair_coeff 5 5 lj/cut 1e-04 3.193
pair_coeff 2 2 hbond/dreiding/lj 5 j 9.50 2.75 4 9.0 11.0 90
pair_coeff 2 3 hbond/dreiding/lj 5 i 9.50 2.75 4 9.0 11.0 90
pair_coeff 2 3 hbond/dreiding/lj 5 j 9.50 2.75 4 9.0 11.0 90
pair_coeff 3 3 hbond/dreiding/lj 5 j 9.50 2.75 4 9.0 11.0 90

neighbor 2 bin
neigh_modify every 2 one 10000

# Gemoetric relaxation
fix 1 all box/relax iso 1.0 vmax 0.001
minimize 1.0e-4 1.0e-6 10000 10000
WARNING: Using 'neigh_modify every 1 delay 0 check yes' setting during minimization (../min.cpp:188)
Neighbor list info ...
  update every 1 steps, delay 0 steps, check yes
  max neighbors/atom: 10000, page size: 100000
  master list distance cutoff = 13
  ghost atom cutoff = 13
  binsize = 6.5, bins = 3 3 3
  3 neighbor lists, perpetual/occasional/extra = 3 0 0
  (1) pair hbond/dreiding/lj, perpetual, skip from (3)
      attributes: full, newton on
      pair build: skip
      stencil: none
      bin: none
  (2) pair lj/cut, perpetual, half/full from (3)
      attributes: half, newton on
      pair build: halffull/newton
      stencil: none
      bin: none
  (3) neighbor class addition, perpetual
      attributes: full, newton on
      pair build: full/bin
      stencil: full/bin/3d
      bin: standard
Per MPI rank memory allocation (min/avg/max) = 16.29 | 16.62 | 17.08 Mbytes
Step Temp E_pair E_mol TotEng Press Volume 
       0            0 1.1352482e+17    283.61059 1.1352482e+17 9.2257388e+18         3375 
    5155            0    -1018.466    37.359597   -981.10639    73.190879    37373.809 
Loop time of 4.71146 on 32 procs for 5155 steps with 1515 atoms

100.0% CPU use with 32 MPI tasks x no OpenMP threads

Minimization stats:
  Stopping criterion = energy tolerance
  Energy initial, next-to-last, final = 
    1.13524821716826e+17  -980.522354439441  -980.610550019672
  Force two-norm initial, final = 1.5647723e+19 88.240692
  Force max component initial, final = 8.1479879e+18 52.960121
  Final line search alpha, max atom move = 1.0934984e-05 0.00057911809
  Iterations, force evaluations = 5155 5158

MPI task timing breakdown:
Section |  min time  |  avg time  |  max time  |%varavg| %total
---------------------------------------------------------------
Pair    | 1.3573     | 2.5029     | 4.0123     |  36.6 | 53.12
Bond    | 0.0066331  | 0.011113   | 0.022015   |   2.8 |  0.24
Neigh   | 0.099526   | 0.099787   | 0.10008    |   0.1 |  2.12
Comm    | 0.25374    | 1.7619     | 2.9065     |  43.6 | 37.40
Output  | 0          | 0          | 0          |   0.0 |  0.00
Modify  | 0          | 0          | 0          |   0.0 |  0.00
Other   |            | 0.3358     |            |       |  7.13

Nlocal:        47.3438 ave          69 max          30 min
Histogram: 3 2 3 6 5 5 4 1 2 1
Nghost:        1984.59 ave        2016 max        1949 min
Histogram: 2 0 3 5 6 3 3 6 1 3
Neighs:        4996.03 ave        7665 max        3244 min
Histogram: 5 2 6 3 6 5 1 0 2 2

Total # of neighbors = 159873
Ave neighs/atom = 105.52673
Ave special neighs/atom = 2.0369637
Neighbor list builds = 98
Dangerous builds = 0

# MD simulation
velocity all create 300.0 12345 rot yes dist gaussian
timestep 1.0
fix 2 all nvt temp 300.0 300.0 1

# Compute interaction energy
group WAT molecule <> 2 501
1500 atoms in group WAT
group MOL molecule 1
15 atoms in group MOL

compute w WAT group/group MOL pair yes
fix 3 all ave/time 10 5 100 c_w file outa

# Outputs
thermo 100 # Output thermodynamic data every nth step
#dump mf1 all xyz 10000 mol_*.xyz

# Run
run 1000000
Neighbor list info ...
  update every 2 steps, delay 10 steps, check yes
  max neighbors/atom: 10000, page size: 100000
  master list distance cutoff = 13
  ghost atom cutoff = 13
  binsize = 6.5, bins = 6 6 6
  4 neighbor lists, perpetual/occasional/extra = 3 1 0
  (1) pair hbond/dreiding/lj, perpetual, skip from (4)
      attributes: full, newton on
      pair build: skip
      stencil: none
      bin: none
  (2) pair lj/cut, perpetual, half/full from (4)
      attributes: half, newton on
      pair build: halffull/newton
      stencil: none
      bin: none
  (3) compute group/group, occasional, copy from (2)
      attributes: half, newton on
      pair build: copy
      stencil: none
      bin: none
  (4) neighbor class addition, perpetual
      attributes: full, newton on
      pair build: full/bin
      stencil: full/bin/3d
      bin: standard
Per MPI rank memory allocation (min/avg/max) = 15.13 | 15.20 | 15.68 Mbytes
Step Temp E_pair E_mol TotEng Press Volume 
    5155          300    -1018.466    37.359597    372.77754    1729.1398    37373.809 
    5200    296.31037   -1068.5219    206.13619    474.84715    2207.0713    37373.809 
    5300    296.57922   -1031.2866    185.45977    492.61933    1844.1791    37373.809 
    5400    298.13643   -1105.6648     172.8177    412.62664     942.7206    37373.809 
    5500    306.51217    -1144.396    201.61349    440.49051    629.69381    37373.809 
    5600     289.4066   -1110.6742    206.79668    402.19895    926.30615    37373.809 
    5700    303.61237   -1079.5713    187.05339    477.66843    284.26223    37373.809 
    5800    304.15233   -1121.3783    198.86776    450.11256    83.957006    37373.809 
    5900    306.37236   -1112.5948    177.80227    447.84953   -187.40169    37373.809 
    6000    304.14958   -1102.8949    194.59705    464.31296   -250.60586    37373.809 
    6100    288.01533   -1100.9742    197.44224    396.26575   -240.30653    37373.809 
    6200    302.80608   -1114.5574    185.17031    437.16048    -92.62245    37373.809 
    6300    307.98483   -1068.5514    208.64835    530.01596    380.88199    37373.809 
    6400    297.27035   -1113.9517    206.00621    433.61963    195.80178    37373.809 
    6500    298.45756   -1066.0962    205.10944    485.93625    211.07068    37373.809 
    6600     307.0821   -1082.7819    209.02332    512.08645      439.884    37373.809 
    6700    306.20827    -1077.703    210.80748    515.00601    338.53698    37373.809 
    6800    301.89419   -1097.7192    214.29308    479.00619    262.85722    37373.809 
    6900    305.51186   -1093.7445    216.09595    501.11006    572.18521    37373.809 
    7000    293.03061   -1085.4406    226.09693    463.08777    186.96532    37373.809 
    7100     296.8551   -1066.2155    226.01447    499.49008    613.09806    37373.809 
    7200    296.62676   -1086.7063    217.36883    469.32322    557.96229    37373.809 
    7300    292.17187   -1078.2155    223.85127    464.19177    594.78777    37373.809 
    7400    303.29676   -1074.3156    225.71737    520.16376    529.89856    37373.809 
    7500    296.11155   -1028.0646    220.22251    528.49346    512.57903    37373.809 
    7600    299.01558   -1006.7249    236.77173    579.48813    33.755436    37373.809 
    7700    301.39813   -1058.5332    227.04903    528.70943    675.82317    37373.809 
    7800    308.04851    -1065.252    229.97909    554.93347    552.45598    37373.809 
    7900    295.15847    -1099.573    231.10562    463.56697    1063.1448    37373.809 
    8000    303.15201   -1078.0062    224.18589    514.28845    745.79431    37373.809 
    8100     303.8925   -1110.2013    233.68713    494.93636    543.07244    37373.809 
    8200     306.0859   -1104.6661    251.24272    527.92594    777.78031    37373.809 
    8300      293.822    -1129.978    254.33558    450.36049    716.61579    37373.809 
    8400    293.80652   -1097.0238    235.92542    464.83472    613.24787    37373.809 
    8500    293.81368   -1089.1805    244.59408    481.37897    501.39579    37373.809 
    8600    295.55879   -1095.7565    227.24551    465.32995    457.11709    37373.809 
    8700    296.01397    -1133.464    246.07305    448.50421   -26.576436    37373.809 
    8800    297.51709   -1113.5882    241.05039    470.14084     409.6674    37373.809 
    8900    300.47341   -1119.3501    249.97223    486.64253    242.57255    37373.809 
    9000    298.05939   -1126.9824    232.41374    450.55735    340.27871    37373.809 
    9100    298.98118   -1155.5439    236.02657     429.7687    194.69056    37373.809 
    9200    303.71027   -1119.2251    247.83363     499.2367    450.29649    37373.809 
    9300    300.87208   -1106.1785    255.21936    506.86038    247.69783    37373.809 
    9400    308.49539   -1091.1272    253.19831    554.29426    398.98616    37373.809 
    9500    300.79798   -1116.2344    251.30168    492.55244    153.18519    37373.809 
    9600    297.54511   -1094.5016    254.52293    502.82652    338.47927    37373.809 
    9700      289.955   -1079.0923     268.6492    498.10827   -92.168419    37373.809 
    9800    308.56139   -1066.9412    261.29365    586.87348    446.49206    37373.809 
    9900    298.87293   -1072.8138    265.42757    541.41124     628.8638    37373.809 
   10000    299.60889   -1111.2149    281.24487    522.14886    271.43702    37373.809 
   10100    289.88474   -1133.9626    253.09982    427.37151     169.8321    37373.809 
   10200     288.4219   -1180.8007    247.28512    368.11705   -114.11616    37373.809 
   10300    304.48069   -1161.5269    259.16514    471.74332    41.609894    37373.809 
   10400    307.89263   -1170.0153    237.27608     456.7637   -173.20958    37373.809 
   10500    294.72924   -1181.2879      260.638    409.44741    178.40572    37373.809 
   10600    289.11783   -1176.9035    259.88015     387.7499   -267.55316    37373.809 
   10700     294.7639   -1161.7669    262.22867    430.71547   -23.994855    37373.809 
   10800    308.02098   -1193.6801     257.9298     454.3319    457.98789    37373.809 
   10900    306.70057   -1169.3492    265.02154    479.79562    423.61398    37373.809 
   11000    312.98396   -1137.5251    266.45224    541.40698    840.51176    37373.809 
   11100    291.95087   -1141.4591    264.24021    440.33975    780.56874    37373.809 
   11200    304.68853   -1186.8863    261.89783     450.0545      658.871    37373.809 
   11300    296.37217   -1169.5369    269.71394    437.68876    368.77323    37373.809 
   11400      301.521   -1202.8584    251.09803    408.98778    251.93709    37373.809 
   11500    306.25803   -1141.6807    283.86276    524.30812    1098.5888    37373.809 
   11600    292.74658   -1156.2057     263.3777    428.32161    527.06056    37373.809 
   11700    299.51753   -1187.6073     282.2569    446.35619    706.37018    37373.809 
   11800    308.43012   -1147.6452    273.72421    518.00762    717.09766    37373.809 
   11900     303.0132   -1167.9987    269.36586    468.84949    768.93984    37373.809 
   12000    301.71204   -1159.1785    269.22217    471.65396    312.50829    37373.809 
   12100    290.00873   -1145.8971    275.26578    438.16247    693.21902    37373.809 
   12200    291.56966   -1140.6694     291.2364    466.40525    380.90465    37373.809 
   12300    307.71729   -1172.5905    273.43732    489.55845     338.3777    37373.809 
   12400    297.09286   -1199.9471    267.42588    408.24291     185.4782    37373.809 
   12500     292.4841   -1163.5129      266.157    422.60913    495.86894    37373.809 
   12600    293.74714   -1104.3104    289.16282    510.51747    247.90563    37373.809 
   12700    302.59842   -1136.2226      278.597    507.98485    544.02795    37373.809 
   12800    295.18141   -1169.8255    280.13359    442.44593    420.52555    37373.809 
   12900    291.83548   -1190.6642    270.77659    397.15032   -95.798583    37373.809 
   13000    303.03464   -1159.7802    288.06868    495.86758     410.0938    37373.809 
   13100    302.48604   -1158.3359    282.55216    489.31954    406.18415    37373.809 
   13200    300.78396   -1144.8314    278.99895    491.58949    124.28716    37373.809 
   13300    299.06507   -1180.8601    293.50166    462.30619    191.25175    37373.809 
   13400    297.32116   -1214.7738    274.47509    401.49578   -5.1060995    37373.809 
   13500    293.11017   -1220.7534    275.83198    377.86908    175.26991    37373.809 
   13600    299.50423   -1151.3749    284.28133    484.55293    244.78764    37373.809 
   13700    295.42551   -1196.5622    281.50441    418.18175    183.59613    37373.809 
   13800    294.39225   -1209.4779     289.4599    408.55849    183.15449    37373.809 
   13900    299.73165   -1203.0215    281.21145    430.86282    104.48686    37373.809 
   14000    288.56747   -1179.5326    299.41377    422.17072    372.20135    37373.809 
   14100    297.34484   -1193.2808    281.80007    430.42057    458.94098    37373.809 
   14200    291.86925   -1265.5964    295.83966    347.43356    407.72868    37373.809 
   14300    297.22147   -1184.6856    294.44682    451.10578    419.92766    37373.809 
   14400    296.13329   -1212.4652    296.20233    420.17079    345.63489    37373.809 
   14500    302.89053    -1219.043     286.0589    433.94462     216.8953    37373.809 
   14600    303.43795   -1234.9091    290.30147    424.79156    522.98007    37373.809 
   14700    299.69401    -1202.043    301.74236    452.20234    440.62937    37373.809 
   14800    295.68652   -1207.1476    279.27448    406.54432    16.266363    37373.809 
   14900    304.17372   -1201.3285    275.34718    446.73836    14.644044    37373.809 
   15000    298.17062   -1200.6786    300.28328    445.23274    447.41919    37373.809 
   15100     297.2623   -1249.6766    264.48214    356.33432    422.24079    37373.809 
   15200    292.38646   -1205.0192    294.96298    409.46821    387.78339    37373.809 
   15300    291.82736    -1227.772    290.51841    379.74761   -48.502735    37373.809 
   15400    300.06928   -1191.2474    295.79935    458.74851    115.02492    37373.809 
   15500    313.03674   -1249.1269    292.40674    455.99781    10.532384    37373.809 
   15600    290.18492   -1225.8035    296.56189    380.34741    -281.1752    37373.809 
   15700    288.72629   -1204.5899    285.92356    384.33998   -294.43744    37373.809 
   15800    301.74436   -1191.1839     303.2694     473.8416   -109.47317    37373.809 
   15900    295.02993   -1196.1837    279.64381    414.91437   -202.39268    37373.809 
   16000    296.95261   -1190.8524    300.40814    449.68696    428.59545    37373.809 
   16100    298.72314   -1218.7278     283.7929    413.18659   -115.68206    37373.809 
   16200    316.61818   -1168.4177    316.68012    577.14331    502.08201    37373.809 
   16300    300.33575   -1161.0536    325.01311    519.35865    568.77296    37373.809 
   16400    309.02044   -1194.9799    309.21862    508.83138    465.15507    37373.809 
   16500    299.26175   -1202.1968    303.93337     452.2888    692.84644    37373.809 
   16600    303.64375    -1168.424    311.74033    513.64433    212.79831    37373.809 
   16700    303.69267   -1196.0507    307.20442    481.70249     749.6264    37373.809 
   16800     297.8382   -1182.7647    288.09811    449.46129    628.72644    37373.809 
   16900    293.74592   -1222.1252    306.11948    409.65392     847.4578    37373.809 
   17000     289.0786   -1164.1395    310.53365    450.99041    355.26012    37373.809 
   17100    297.36844   -1190.6461    297.49578    448.85751    409.33285    37373.809 
   17200    305.78038   -1174.6036    317.91891    523.28574    644.80932    37373.809 
   17300    297.13054   -1191.9565     300.9807    449.95841    1017.4227    37373.809 
   17400    297.83129   -1139.9534    303.18638    507.32959    991.52145    37373.809 
   17500     293.2205   -1205.6194    293.50364    411.17262    465.70563    37373.809 
   17600     298.2025   -1191.5327    321.60247    475.84172    524.31721    37373.809 
   17700    301.63534   -1204.1717    291.52903    448.62149    614.63362    37373.809 
   17800    311.19087   -1169.6914    310.91237    545.60871    553.98097    37373.809 
   17900    295.14143   -1134.4628    321.62977    519.12442    410.01639    37373.809 
   18000    313.27382   -1148.9077    310.18617    575.06646    283.90122    37373.809 
   18100    308.02227   -1153.8612    303.96464    540.19148    484.82476    37373.809 
   18200    300.31851   -1206.7233    295.97348    444.57159    11.107146    37373.809 
   18300    301.01434   -1163.8892    309.70005    504.27247    604.20978    37373.809 
   18400    297.78091   -1189.8522    322.33512    476.35225    612.69143    37373.809 
   18500    289.23382   -1174.2493    329.85199    460.89939    565.18878    37373.809 
   18600    290.57897    -1173.867    317.21909     454.7194    432.63341    37373.809 
   18700    297.86247   -1188.7888    296.33093    451.77952   -52.847037    37373.809 
   18800    293.37771   -1191.2301    329.90948    462.67727    378.24873    37373.809 
   18900    296.67282   -1209.6747    315.36651     444.5603    743.99523    37373.809 
   19000    296.04386    -1191.067    322.38679    467.34987    704.55561    37373.809 
   19100    292.21665   -1170.5123    330.54969     478.7955    483.28799    37373.809 
   19200    288.09108   -1208.8108    340.78566    432.11451    322.76588    37373.809 
   19300    304.42693   -1205.7178    305.27696    473.42155    285.51373    37373.809 
   19400    299.45169   -1214.0774     318.6077    455.93972    190.18978    37373.809 
   19500    300.64723   -1228.7099    299.53805      427.633   -123.46564    37373.809 
   19600    297.06081   -1218.5148    304.17902    426.28372   -199.09416    37373.809 
   19700    314.50426   -1190.5175    332.42905    561.25243    65.048956    37373.809 
   19800    306.12617   -1196.2514    321.97123    507.25083       120.31    37373.809 
   19900     294.3631   -1197.5135    325.25805    456.18949    178.92009    37373.809 
   20000    302.65546   -1163.8284    317.26248    519.30195    288.98639    37373.809 
   20100    298.31616   -1167.4399    331.79595    510.64087    311.18417    37373.809 
   20200    307.85101   -1154.3147    320.08776    555.08812    798.94147    37373.809 
   20300    305.86859   -1196.1546    344.30012     528.5141    651.95333    37373.809 
   20400    307.76205   -1153.3989    337.83704    573.35174    378.33561    37373.809 
   20500    301.12367   -1152.6872    325.21192    531.47966     383.0683    37373.809 
   20600    298.43788   -1187.5466    333.35881    492.64632    563.70644    37373.809 
   20700    301.04888   -1211.1636     326.1576    473.61142    330.71907    37373.809 
   20800    304.77391   -1176.8542     324.0837    522.65786    79.244302    37373.809 
   20900    293.03202   -1220.1997    319.43801    421.67617   -358.47769    37373.809 
   21000    301.98806   -1221.0134    327.68513    469.52761    345.92171    37373.809 
   21100    307.81691   -1201.1408    322.99921    511.01963    6.2034074    37373.809 
   21200    294.38939   -1165.0779    344.30625    507.79187   -359.12558    37373.809 
   21300    310.00196   -1184.8206    323.15383    537.35553    177.30937    37373.809 
   21400     299.1383   -1172.2567    330.14552    507.88398    23.589187    37373.809 
   21500    300.14414   -1177.1424    340.53192    517.92397    471.36339    37373.809 
   21600    296.47896   -1178.4232    322.66295    482.23336    179.16414    37373.809 
   21700    309.03031   -1184.7337     344.4782     554.3817    -220.5475    37373.809 
   21800    300.31367   -1201.0501    327.71024    481.95966   -243.27864    37373.809 
   21900    308.43151   -1214.2438    333.03388    510.72494   -476.18171    37373.809 
   22000     294.0595   -1196.1483     350.3843    481.31075   -303.67274    37373.809 
   22100    310.57054   -1228.4174    342.88451    516.05536    275.66073    37373.809 
   22200    303.48841   -1177.2127    322.56956    514.98385    221.58006    37373.809 
   22300    293.85584   -1210.0014    350.29721     466.4515    578.41606    37373.809 
   22400    296.96531   -1231.8477     325.7651    434.10591    594.67389    37373.809 
   22500    304.67275   -1236.7442     340.1114    478.33898    554.12671    37373.809 
   22600     301.7007   -1231.3306     340.4625    470.69095    760.73298    37373.809 
   22700    295.72637   -1231.8133    329.54818    432.33217     650.8761    37373.809 
   22800     299.3874   -1189.8833    351.45743    512.69343    516.22666    37373.809 
   22900     300.4272   -1256.7626    338.42293    437.47224   -156.77651    37373.809 
   23000    293.06199   -1254.1095    315.44898    383.91257    123.40961    37373.809 
   23100    305.83172   -1216.9466    368.32092    531.57646   -255.46102    37373.809 
   23200    289.36096   -1218.7864     342.2768    429.36095   -92.179352    37373.809 
   23300    295.95034   -1225.4187    350.01204    460.20131    145.21307    37373.809 
   23400    302.01318   -1206.5553    342.30427    498.71831    9.7720194    37373.809 
   23500    296.16994   -1219.5694    350.92555    467.95517   -548.00702    37373.809 
   23600    296.12714   -1215.2777    348.55085    469.67912    59.434487    37373.809 
   23700    298.68974   -1222.5603     349.5158    474.92633   -238.58224    37373.809 
   23800    300.46519   -1234.0593    334.15381    456.07778   -295.13147    37373.809 
   23900    297.20542   -1227.0075    336.61016    450.87473   -189.64699    37373.809 
   24000    307.20506   -1276.4849    342.83917    452.75431   -339.22302    37373.809 
   24100    301.11833    -1211.057    341.20901    489.08295     172.0979    37373.809 
   24200    287.41304   -1235.4887    378.58365     440.1746   -412.32448    37373.809 
   24300    288.68474    -1264.124    366.85366    405.54848   -174.33948    37373.809 
   24400    298.99162   -1275.8126     332.5521     406.0727    307.90703    37373.809 
   24500    297.62293   -1268.2278    339.71243    414.64096    84.848405    37373.809 
   24600    299.05578   -1249.7828    344.98986    444.82976      -81.063    37373.809 
   24700    306.88645    -1221.426    363.68661    527.22274    333.10646    37373.809 
   24800    292.98343   -1222.1338    365.79481    465.87958   -112.08792    37373.809 
   24900    301.32598    -1209.547    341.69738    492.01843    43.759118    37373.809 
   25000    292.14736    -1227.071    363.23393    454.60835    93.559512    37373.809 
   25100    291.26361   -1220.0804    367.66468     462.0413    371.96232    37373.809 
   25200    310.54901     -1226.95    350.44795    524.98896   -16.516238    37373.809 
   25300    292.52053   -1202.2905    376.53773    494.37674    134.79141    37373.809 
   25400    300.04332   -1219.0484    364.49687    499.52789    191.61709    37373.809 
   25500    299.72104   -1239.5895    359.13146    472.16699   -84.217993    37373.809 
   25600    312.43563   -1209.7422    379.68957    579.95263      155.676    37373.809 
   25700    299.52149   -1213.2861    374.42527    512.86364   -280.93899    37373.809 
   25800    296.05526   -1225.0891     364.8339     475.8263    131.57178    37373.809 
   25900    300.23141   -1220.8564    376.27718    510.34901    189.28539    37373.809 
   26000    296.01466   -1212.5368    385.79873    509.16026   -57.108373    37373.809 
   26100    295.10032    -1178.132    352.21894     505.8589    -17.94817    37373.809 
   26200    301.35503   -1181.9771    367.14917    545.17119   -69.206751    37373.809 
   26300    301.46827   -1214.6776    368.98141    514.81398    314.39558    37373.809 
   26400    308.06827   -1235.5364    355.23209    509.99129    376.22949    37373.809 
   26500    296.78079   -1253.9507    370.01565    455.42078    348.52965    37373.809 
   26600    304.87978    -1199.314    361.09072    537.68285    16.500542    37373.809 
   26700    302.42303   -1222.9305    358.64746    500.53588    90.179442    37373.809 
   26800    304.01834   -1271.2559    364.85526    465.61777   -57.449092    37373.809 
   26900    296.47371   -1228.8493    352.59795    461.71865     236.9015    37373.809 
   27000    293.08133   -1209.5582    365.08632    478.18849    174.02929    37373.809 
   27100    308.98553   -1221.7721    390.66525    563.32831    460.94993    37373.809 
   27200    301.88408   -1256.5714     398.2995    504.11478    128.02096    37373.809 
   27300    303.40154   -1231.5579    390.44391    528.12095   -49.631287    37373.809 
   27400    310.34075   -1214.5732    375.53639    561.51436    38.492306    37373.809 
   27500    291.81175   -1238.6784     368.7716      447.024   -75.828077    37373.809 
   27600    300.81238   -1232.8447    351.80985    476.51526   -143.95505    37373.809 
   27700    293.15753   -1198.2373    371.24772    496.01465    73.764914    37373.809 
   27800    288.56068   -1234.6775    394.87976    462.46113     289.7076    37373.809 
   27900     296.9535   -1266.7311    364.46047    437.86462    116.70261    37373.809 
   28000     308.1601   -1229.3549    380.22296    541.57809    448.88601    37373.809 
   28100     304.5006   -1248.0525     366.5703    492.71263   -55.895177    37373.809 
   28200    277.50206    -1258.147    377.93241    372.13735    388.71802    37373.809 
   28300    290.91842   -1250.1045    390.14763    452.94235     20.30428    37373.809 
   28400    306.61404   -1256.0612    370.51792    498.18942   -48.709482    37373.809 
   28500    301.78278   -1238.5514    361.50326    484.88136     323.5841    37373.809 
   28600    298.95159   -1267.1426    380.48441    462.49434     272.6851    37373.809 
   28700    298.19275   -1263.6736    370.73023    452.78453    248.00683    37373.809 
   28800    306.72434   -1230.2265    356.78068    510.78471   -38.797959    37373.809 
   28900    307.10501   -1223.5204    356.86682    519.29491    382.62651    37373.809 
   29000    294.21837   -1271.2091    371.13803    427.72066    236.53037    37373.809 
   29100    302.25176   -1311.5737    354.37702    406.84933     187.4357    37373.809 
   29200    300.46778   -1293.0095    370.97402    433.95956    15.777664    37373.809 
   29300    295.24215   -1294.2438    387.62296     425.7912    148.35475    37373.809 
   29400     288.5173   -1291.7496    375.19571    385.50928    57.133232    37373.809 
   29500    302.99631   -1329.2038    378.37349    416.57581    -57.68737    37373.809 
   29600    306.56393   -1250.6925    371.58818    504.40231    282.14476    37373.809 
   29700    315.21949   -1275.4888    361.20787    508.28773    59.914975    37373.809 
   29800    299.61409   -1248.7663    377.90229    481.27831    236.10378    37373.809 
   29900    305.16104   -1248.3851    382.40939    511.19974    458.59927    37373.809 
   30000    295.95191   -1273.8127    388.04075    449.84318     538.5375    37373.809 
   30100    298.80254    -1273.429    367.80259    442.85349    695.47259    37373.809 
   30200    296.47197   -1257.6383    380.14303     460.4669    352.47197    37373.809 
   30300    308.07962   -1276.6429    391.55753    505.26145    839.50666    37373.809 
   30400    292.50394   -1243.0052    375.44777    452.49714    561.44093    37373.809 
   30500    289.99326   -1258.2145    387.26087    437.77041    409.70665    37373.809 
   30600    297.62754   -1251.6753    404.96375    496.46561    403.50021    37373.809 
   30700    295.37527   -1306.4258     371.1455    397.73246   -503.64802    37373.809 
   30800    304.95889   -1299.2246    396.67159    473.71013   -302.08008    37373.809 
   30900    306.42769   -1329.3947    374.10795    427.60505   -387.79266    37373.809 
   31000    298.41958   -1316.0255    382.17618    412.90227   -332.53299    37373.809 
   31100     294.2569   -1317.3149    377.23286    387.88361   -501.50375    37373.809 
   31200    291.08947   -1284.7833    392.91376    421.80166   -115.25397    37373.809 
   31300    307.14196   -1268.1283    395.05729    513.04425     150.3842    37373.809 
   31400    306.25335   -1296.8031    378.33787    463.63968    191.03909    37373.809 
   31500    297.30733   -1293.5462    386.20885    434.39472    -539.2847    37373.809 
   31600    298.32005   -1222.3404    385.40591    509.36795    -291.0006    37373.809 
   31700    293.52639   -1252.9664    373.98118    445.68366   -919.68589    37373.809 
   31800    307.75044    -1235.011    397.63726    551.48752    140.66731    37373.809 
   31900    300.42497   -1270.2075    383.59467    469.18898     258.0616    37373.809 
   32000    296.28942    -1291.852    395.72135    441.00766   -215.35495    37373.809 
   32100    299.52862   -1242.3841     390.9536    500.32608    52.852793    37373.809 
   32200    299.00662   -1305.1451    356.80673     401.0625    -30.06445    37373.809 
   32300    305.66602   -1286.8395    395.62326    488.23815   -184.79357    37373.809 
   32400    301.12646    -1295.407    379.20708    442.76764    -29.59234    37373.809 
   32500    303.25765   -1299.6559    378.94647    447.87612   -620.63563    37373.809 
   32600    286.98064   -1309.7792    391.33515    376.68423   -21.804626    37373.809 
   32700     308.0819   -1317.7824     381.8241    454.39878    60.758037    37373.809 
   32800    299.02948   -1296.3774    397.54557    450.67224    644.46782    37373.809 
   32900     302.3495   -1332.8639    403.65193    435.27517    355.69407    37373.809 
   33000    302.86911   -1297.2469    387.15789    456.74309    283.29743    37373.809 
   33100    297.41978   -1273.8304    403.99532    472.40441    79.707279    37373.809 
   33200    303.16821   -1303.1199     399.2837    464.34564    444.36617    37373.809 
   33300    296.16828   -1324.6697    387.37794     399.2998    358.56106    37373.809 
   33400    299.83316   -1291.8768    384.74394    445.99807    394.33387    37373.809 
   33500    308.59547   -1305.7312    371.41665    458.36026    354.15457    37373.809 
   33600    309.83452   -1276.1248    384.63995    506.78177    797.94588    37373.809 
   33700    296.08665   -1310.5064    396.71538    422.43213    555.89232    37373.809 
   33800    294.41132   -1331.7695    377.73028    374.62326     162.4237    37373.809 
   33900    296.52542   -1324.9731    375.53109    388.76132    245.61753    37373.809 
   34000    308.91354    -1322.534    402.89551    474.47176    423.25928    37373.809 
   34100    300.93502   -1385.4237    389.42601     362.1059    310.60332    37373.809 
   34200    301.63722   -1353.6352    385.79026    393.42768    145.95815    37373.809 
   34300    301.06913   -1334.5896    392.58692    416.70615    491.24902    37373.809 
   34400    299.25809    -1332.232    383.92059    402.22433    218.44641    37373.809 
   34500    295.45838   -1352.1598     403.4567    384.68472    244.92333    37373.809 
   34600    296.58709   -1295.5987    404.46331    447.34625    489.89079    37373.809 
   34700    304.09384   -1350.2361    380.70845    402.83151    178.41764    37373.809 
   34800     287.9083    -1362.436    366.92859     303.8073    247.74625    37373.809 
   34900    295.43465   -1339.3805    381.31265    375.21285    487.16909    37373.809 
   35000    301.85607   -1330.5797    393.85106    425.53161     429.6473    37373.809 
   35100    306.18406   -1314.2657    375.41705    442.94358    72.309369    37373.809 
   35200    311.19038   -1344.1869    395.05447    455.25312    695.44037    37373.809 
   35300    300.00983   -1307.1741     403.3104    450.06455    358.01658    37373.809 
   35400    294.19577   -1373.0838    410.81221    365.41813    628.38593    37373.809 
   35500    307.30998    -1360.866    389.01316    415.02068    657.33451    37373.809 
   35600      298.337    -1325.317    401.97943    423.04137    369.07502    37373.809 
   35700    297.35634   -1349.5191    381.09362    373.52774   -69.531818    37373.809 
   35800    292.30014   -1333.7234    399.23247    384.64389    38.700065    37373.809 
   35900    293.81667   -1303.7218    378.85737    401.11444    179.62085    37373.809 
   36000    302.19201   -1308.4486    397.13695    452.46471    126.36574    37373.809 
   36100    321.00112   -1313.6003    388.90255     523.9631    28.457164    37373.809 
   36200    302.44372   -1302.2982    393.59415    456.20827    223.30817    37373.809 
   36300    297.78919   -1320.1363    400.95832    424.72865    -592.7282    37373.809 
   36400    293.81962   -1332.7582    399.66928    392.90326   -535.38841    37373.809 
   36500    310.91981   -1322.4399    366.01194    446.73647   -940.96489    37373.809 
   36600    304.03921   -1289.4276    391.23494       473.92   -511.25279    37373.809 
   36700    292.20055   -1371.4769    381.70625    328.91474   -310.23938    37373.809 
   36800    296.27618   -1325.7141    381.31914    392.68354   -72.542745    37373.809 
   36900    299.84007   -1318.0927    402.44461    437.51411   -180.53494    37373.809 
   37000    293.88468   -1283.7028    403.24632    445.82934    126.15951    37373.809 
   37100    293.05957   -1321.7444    401.39069     402.2084    32.042497    37373.809 
   37200    310.50475   -1367.0136    384.85831    419.13602    765.91502    37373.809 
   37300    298.40667   -1320.5652    393.80514    419.93323    729.54448    37373.809 
   37400     290.7421   -1327.3817    409.23877    393.96055    78.288689    37373.809 
   37500    300.73523   -1332.9227    393.89678    418.17605     217.1334    37373.809 
   37600    289.20855   -1277.8977    404.81153    432.09648   -101.34029    37373.809 
   37700    290.77521    -1291.311    406.21228    427.15425   -803.22856    37373.809 
   37800    301.68973   -1272.1565    420.14854     509.5016   -216.41989    37373.809 
   37900    302.78725   -1287.2699    399.73767    478.93043     367.3739    37373.809 
   38000    293.93868   -1278.2956    403.20762    451.44154    523.52482    37373.809 
   38100    299.32123    -1303.706    367.87103    414.98565   -346.33725    37373.809 
   38200    299.37033   -1270.6535    397.74044    478.12925    351.20403    37373.809 
   38300    303.16226   -1275.2893    412.53543    505.40118   -48.650212    37373.809 
   38400    294.14085   -1284.9359    383.76358    426.26961   -310.56796    37373.809 
   38500    305.46939   -1269.3819    374.67564    483.86072   -24.532403    37373.809 
   38600    305.18268   -1276.3501    419.91448    520.83746   -136.32427    37373.809 
   38700    305.84083   -1267.9766    417.25943    529.52608    132.20926    37373.809 
   38800    290.62857   -1248.7529    423.23681    486.07504   -325.23384    37373.809 
   38900     293.3873   -1283.6767    410.87834    451.24277   -22.729314    37373.809 
   39000    294.64532   -1252.8389    413.72559    490.60527    83.691301    37373.809 
   39100    287.90867   -1238.7725    412.92326    473.46718    720.40784    37373.809 
   39200    286.25969   -1277.1311    428.42895    443.17245    160.22095    37373.809 
   39300    301.56962   -1325.9209    398.57972    433.62641     552.0042    37373.809 
   39400    305.25503   -1329.9055    404.31918    452.01325    508.51741    37373.809 
   39500    285.28266   -1303.7457    402.94336    386.66298     82.35566    37373.809 
   39600    305.57694   -1352.0374    395.81384     422.8288   -177.09671    37373.809 
   39700     298.3484   -1310.7696    410.52425    446.18497   -170.30387    37373.809 
   39800    297.42063    -1286.455    402.20278    457.99119   -193.51245    37373.809 
   39900    305.04427    -1308.268    405.80699    474.18739   -394.30977    37373.809 
   40000    299.08595   -1271.2905    407.34917     485.8175     135.8045    37373.809 
   40100    303.81213    -1276.913     397.8803    492.05512    70.998802    37373.809 
   40200    301.06704   -1290.6028    417.57017     485.6668    412.67543    37373.809 
   40300    295.54694    -1315.274    409.83612    428.34962   -108.16573    37373.809 
   40400    293.50859   -1273.6985    410.70886    461.59893    80.267666    37373.809 
   40500    303.15913   -1271.6466    418.69825     515.1925   -149.12191    37373.809 
   40600    289.85801   -1256.8568    433.84267    485.09954    284.71394    37373.809 
   40700    295.65498   -1327.4696    417.46866    424.27409   -11.325992    37373.809 
   40800    304.39319    -1345.693    392.84152     420.8587   -37.342519    37373.809 
   40900    297.43243   -1325.2862    398.41667    415.42709    31.984016    37373.809 
   41000    304.12596   -1295.8818    399.85852    476.48084    410.04324    37373.809 
   41100    297.15454   -1326.2086    407.06695     421.9008    1022.5218    37373.809 
   41200    305.56464   -1324.2037    400.93193    455.72505    397.36116    37373.809 
   41300    298.11643   -1265.1317     419.4744    499.72618    576.78476    37373.809 
   41400    302.13595   -1282.4834    398.82937    479.86934    716.38831    37373.809 
   41500    287.80223   -1262.0372    407.17306    443.97186    385.76124    37373.809 
   41600    308.03813   -1309.0582    406.31369    487.41508     207.6098    37373.809 
   41700    308.47565   -1282.2669    399.84094    509.70812    174.59146    37373.809 
   41800    305.65518   -1295.8948    423.57357    507.08419    341.23008    37373.809 
   41900    303.14883    -1264.963    412.39371    515.52511    155.71782    37373.809 
   42000    302.78889   -1296.8125    406.08479    475.74234   -69.453871    37373.809 
   42100    297.78081   -1330.8873    421.69252    434.67403    428.13425    37373.809 
   42200    301.30936    -1309.089    414.56651    465.27054    117.55308    37373.809 
   42300    298.32669   -1308.4033     424.3209    462.25001    514.37908    37373.809 
   42400    299.41252   -1364.3813    422.59538    409.44677   -87.861268    37373.809 
   42500    297.60757   -1280.1431    423.77618    486.72003    159.99671    37373.809 
   42600    291.80553   -1321.9011    403.66937      398.671    68.109274    37373.809 
   42700    300.10781   -1346.8385    417.06605    424.59799   -208.06707    37373.809 
   42800    306.97897   -1374.6643    400.68257    411.39795    118.37302    37373.809 
   42900    306.59035   -1301.0609    416.07716    498.64205    124.03244    37373.809 
   43000     303.2731   -1293.9154    423.65184    498.39174   -131.63099    37373.809 
   43100    307.21194   -1284.1531    413.46831    515.74625   -507.23839    37373.809 
   43200    305.55099   -1299.7495     425.7845    504.97025   -813.97482    37373.809 
   43300    301.52365   -1291.5042    404.05649    473.31235   -485.70534    37373.809 
   43400    298.28428   -1300.7748    420.98097    466.34717    102.34496    37373.809 
   43500    299.48313   -1304.2884    419.57072    466.83368    58.829991    37373.809 
   43600    300.61221   -1307.0785    402.15546    451.72371    163.15276    37373.809 
   43700    297.85539   -1335.0637    436.06653    445.20822     234.0211    37373.809 
   43800    293.30523   -1319.6913    412.88016    416.85968     409.4529    37373.809 
   43900    303.27091   -1391.0633    400.10706    377.68917    192.33569    37373.809 
   44000    295.87863   -1351.1537    415.91986    400.05061    521.68608    37373.809 
   44100    299.71774   -1299.3092    419.66637    472.96726    534.75655    37373.809 
   44200    309.78811    -1330.405    416.27032    483.92252    132.79027    37373.809 
   44300    304.47393   -1363.0709    416.25538    427.25904    324.31253    37373.809 
   44400    311.81672   -1322.6818    421.57607    506.10639    158.66371    37373.809 
   44500    304.88404   -1301.6115    421.21954    495.53336    50.951643    37373.809 
   44600    300.25525   -1288.3939    401.44755     468.0895    29.426105    37373.809 
   44700    296.07602   -1302.0797    429.47189    463.56734    9.4611909    37373.809 
   44800       307.32   -1273.6185    438.61708    551.91726    152.29128    37373.809 
   44900    292.63338   -1318.3073    416.55389    418.88535     -120.032    37373.809 
   45000    305.39339   -1332.0823    408.92225    455.06394   -218.55817    37373.809 
   45100    313.09452   -1322.9385    382.34762    472.38787   -667.07257    37373.809 
   45200    293.66293   -1309.8356    410.32068    425.77018   -978.88017    37373.809 
   45300     303.1936   -1312.5371    411.63495    467.39434   -381.44406    37373.809 
   45400    298.15735   -1334.9367    425.68511    436.31658   -204.60221    37373.809 
   45500    301.07536   -1328.4927    411.28928     441.5336   -588.16441    37373.809 
   45600    303.69318   -1332.0009     407.1388    445.68894    176.59971    37373.809 
   45700     300.0121   -1275.5502    446.39802    524.78635    702.49333    37373.809 
   45800    306.00471   -1336.2213    415.32988    460.09144    170.76443    37373.809 
   45900    299.71077   -1347.4615    439.98728    445.10444    371.65417    37373.809 
   46000     296.1408   -1319.9603    457.95648    474.46372    266.30649    37373.809 
   46100    304.24848   -1326.2588    432.05397     478.8522     376.8932    37373.809 
   46200    304.31746   -1358.6976    417.00554    431.67639    536.73824    37373.809 
   46300    297.20125    -1308.464    430.69769    463.48702    589.96437    37373.809 
   46400    295.85025   -1358.6971    418.97016    395.42934   -392.40654    37373.809 
   46500    307.72325   -1333.7536    422.55825    477.54318   -129.49265    37373.809 
   46600    313.00678   -1285.7551    433.55628    560.38399    -291.2099    37373.809 
   46700    300.30377   -1357.0048    412.51712    410.76714   -370.98092    37373.809 
   46800    303.68211   -1364.5519    439.18581    445.13496   -143.07806    37373.809 
   46900    306.57698   -1347.8412    422.03124    457.75554     228.8077    37373.809 
   47000    295.48596   -1308.9817    422.62342    447.15403    230.80414    37373.809 
   47100    300.95417   -1336.1359    426.02992    448.08401    188.01339    37373.809 
   47200    293.10215   -1337.4784    422.30962    407.58552   -82.331261    37373.809 
   47300    309.71775   -1349.5622    415.35293    463.53038   -160.13373    37373.809 
   47400     282.6616   -1337.9158    430.60087     368.3217   -353.62146    37373.809 
   47500    294.81376   -1315.2649    442.00433    457.21814   -250.06875    37373.809 
   47600    297.18721    -1325.059    412.26581    428.39674    -239.1228    37373.809 
   47700    309.03515    -1263.101    430.29703    561.85515   -519.75307    37373.809 
   47800    299.87628   -1330.0736    467.23353    490.48557   -839.60038    37373.809 
   47900    311.83245   -1330.2122    450.19441    527.26535   -108.33628    37373.809 
   48000    306.16291   -1371.6629    408.73227     418.7662   -213.18617    37373.809 
   48100    310.12445   -1355.7945    433.62543    477.40592   -381.21392    37373.809 
   48200    307.21341   -1315.1293    435.80732    507.11569     315.3026    37373.809 
   48300    299.14808   -1277.5986    438.82664     511.2673    817.32288    37373.809 
   48400    292.42049   -1293.7697    449.33003    475.23836    356.12905    37373.809 
   48500    302.70205   -1315.4983    435.51169    486.09157     743.1662    37373.809 
   48600    308.21918   -1274.5085    436.70662    553.17481    372.47878    37373.809 
   48700    298.56356    -1322.085    413.33595    438.65228   -282.15513    37373.809 
   48800    310.92566   -1306.9138     425.3753    521.65234    246.58048    37373.809 
   48900    299.02289   -1329.8673    444.24523    463.85218   -49.938788    37373.809 
   49000    297.34672   -1331.3725    454.18253    464.71981    172.45145    37373.809 
   49100    306.54083   -1324.3368     432.9853    492.05083    19.299598    37373.809 
   49200    296.05799   -1359.6912      440.301     416.7036    230.09161    37373.809 
   49300    304.95282   -1340.2393    410.05597    446.05238    234.65169    37373.809 
   49400    293.90288   -1316.5652    432.42226    442.22505   -241.28996    37373.809 
   49500    304.33534   -1272.8109    433.39444    534.03269   -128.52303    37373.809 
   49600    297.43488   -1312.5982    443.52098    473.23049    101.34158    37373.809 
   49700    302.47746   -1288.5332    445.83024    522.36158    1047.1968    37373.809 
   49800    300.63787   -1375.9311    443.47579    424.30725    291.89421    37373.809 
   49900     305.7407   -1324.9826    436.95179    491.76057    823.01495    37373.809 
   50000    300.23731   -1324.2802    435.81072    466.48537    475.83283    37373.809 
   50100    304.52482   -1332.4175    428.87208    470.75875   -11.299689    37373.809 
   50200    311.61405   -1324.4152    424.62897    506.51124    322.18034    37373.809 
   50300    302.15401   -1327.7697    420.16352    455.99864      62.8723    37373.809 
   50400    300.73246   -1352.3648    433.57048    438.39519    233.60054    37373.809 
   50500    295.98524    -1327.658    422.50084    430.60834   -55.182774    37373.809 
   50600    289.31435   -1314.1379    451.44533     442.9676    406.30427    37373.809 
   50700    301.23477   -1349.3021    450.71441     460.8687    208.26342    37373.809 
   50800    303.69232   -1294.8379    452.15945    527.86873    510.87052    37373.809 
   50900    288.28863   -1348.7826     407.4345    359.68304    351.63179    37373.809 
   51000    303.73854   -1357.1916     433.2776    446.84174     762.6924    37373.809 
   51100    287.59016    -1360.507     403.2581    340.63011    745.10357    37373.809 
   51200    292.53555   -1381.2186    444.81219    383.79088    740.53599    37373.809 
   51300    296.49341   -1396.8729    443.50545    384.69141    575.31613    37373.809 
   51400    308.08865   -1363.1854     422.4659    449.66809    849.43423    37373.809 
   51500    302.05861   -1396.2635    435.19899    402.10982    384.45636    37373.809 
   51600    288.70553   -1400.9678    441.91129    343.85602    301.69649    37373.809 
   51700    291.07933   -1391.3962    445.35924     367.5885   -263.43334    37373.809 
   51800    294.42431   -1399.3072    415.38968    344.80357    95.700076    37373.809 
   51900    299.67849   -1403.2974    422.47365    371.60925   -361.86823    37373.809 
   52000    296.98262   -1351.3324    434.34583    423.28004   -217.08816    37373.809 
   52100    309.04707   -1331.5393     422.3665    485.54009   -138.68184    37373.809 
   52200    295.49457   -1326.8806    439.33155    446.00211    386.42483    37373.809 
   52300    294.32605   -1392.9134    429.88211     365.2464    220.69404    37373.809 
   52400    299.49475   -1331.7033    431.79672     451.6972    43.415669    37373.809 
   52500    302.45049   -1362.7941    437.84115     439.9899    166.10079    37373.809 
   52600    301.02864   -1342.0245    452.39098    468.89264    155.64949    37373.809 
   52700    293.70701   -1335.3634    420.51332    410.63392    185.33654    37373.809 
   52800    300.21159    -1353.816    441.37683    442.39965    476.56862    37373.809 
   52900    296.30355   -1364.6765    424.88349    397.40904   -17.651123    37373.809 
   53000    296.28484   -1351.1006    415.03725    401.05428   -145.52972    37373.809 
   53100    293.16214   -1346.3258    433.33847    410.03773    461.04382    37373.809 
   53200     302.0201   -1362.8004    427.35684    427.55692   -277.67196    37373.809 
   53300     297.8112   -1354.7967    431.18361    420.39291    348.39009    37373.809 
   53400    286.73323   -1312.0958    448.04766    429.96357   -298.77433    37373.809 
   53500    290.89333    -1312.193    471.85494    472.44795    366.41089    37373.809 
   53600    305.94104   -1349.5699    450.87135    481.99701     97.24558    37373.809 
   53700    291.28524   -1334.9783    441.90385    421.48026   -507.57992    37373.809 
   53800    305.54826   -1351.0006    445.34746    473.26978   -490.67386    37373.809 
   53900    303.72299   -1316.0982       447.57    502.15741    333.72806    37373.809 
   54000    295.69466   -1339.3843     424.7318    419.80165    125.17587    37373.809 
   54100    296.19009   -1367.4198    420.26335    389.53353   -438.93068    37373.809 
   54200    303.48816   -1370.9338    457.33723    456.02928   -249.40436    37373.809 
   54300    309.44224   -1358.6888    447.44687    485.25432   -359.72085    37373.809 
   54400    304.20825   -1361.8217    441.96374    453.01757  -0.73278751    37373.809 
   54500    300.06918   -1333.1954    444.42245    465.42316   -416.26423    37373.809 
   54600    289.93048   -1331.2936    459.97539    437.12246   -787.58592    37373.809 
   54700    307.21702   -1353.9147    445.09502    477.63426   -419.27233    37373.809 
   54800    297.22438   -1301.9844    430.82665    470.19996   -141.34128    37373.809 
   54900    303.16999   -1346.8133    446.95896    468.33557    53.409361    37373.809 
   55000    303.01982   -1368.2937    448.96192    448.18042    98.484666    37373.809 
   55100    307.96846   -1386.6588    440.18542    443.37178    8.9523284    37373.809 
   55200    306.75661   -1378.6061    442.90212    448.67216    96.189455    37373.809 
   55300    299.10877   -1381.8928    438.60459    406.57359    230.46941    37373.809 
   55400    291.00657   -1369.5556      468.043    411.78448    -462.3202    37373.809 
   55500    305.65597   -1350.8721    434.15216    462.68906   -40.183586    37373.809 
   55600    296.53015    -1358.906    440.38457    419.70327    327.77974    37373.809 
   55700    295.92733   -1337.4868    473.23474    471.25214    345.74472    37373.809 
   55800     303.4575   -1363.6169    420.21641    426.08692    35.002971    37373.809 
   55900    292.69797   -1341.3328    457.94033     437.5378    460.45853    37373.809 
   56000    304.91914   -1391.4634    447.50279    432.12313    209.26346    37373.809 
   56100     294.5948   -1407.9139    440.24155    361.81821    106.98349    37373.809 
   56200    298.47937   -1438.3057    451.33869    360.05438    272.07157    37373.809 
   56300     305.1935   -1444.1077    450.36535    383.57957   -325.64191    37373.809 
   56400    305.28092    -1385.381    449.82884    442.16427   -282.64045    37373.809 
   56500    301.54126   -1380.2705     442.4134    422.98244   -372.91981    37373.809 
   56600    293.14242   -1370.5094    449.34377    401.77038     300.9798    37373.809 
   56700    298.56972   -1402.8129     452.7089    397.32517     336.2848    37373.809 
   56800     302.1121   -1347.9515    449.28172    464.74594    268.66295    37373.809 
   56900    292.51301   -1371.0729    432.85877    381.88137   -99.551342    37373.809 
   57000    303.74469   -1353.8605    449.55938    466.48237    200.84683    37373.809 
   57100    291.34598   -1370.7522    469.92811    414.00472   -151.29018    37373.809 
   57200    303.76839   -1390.4759     442.8363     423.2509    318.98264    37373.809 
   57300    308.48832   -1400.8886    464.21394    455.51658    389.68008    37373.809 
   57400    308.39655   -1395.3016    446.13817    442.61371    486.35808    37373.809 
   57500    298.58135   -1369.9941    472.56595    450.05351    19.811082    37373.809 
   57600    307.05571   -1410.5055    446.62149      421.842     462.1175    37373.809 
   57700    302.24436   -1407.1228    409.44786    366.33765     133.7894    37373.809 
   57800    303.23191    -1378.606    448.01705    437.88039   -226.42813    37373.809 
   57900    309.79005   -1401.5266    458.79552    455.33477    118.65602    37373.809 
   58000    307.45083   -1376.4834    441.92335    452.94908   -248.51208    37373.809 
   58100    295.99569   -1414.7618    475.18129    396.23216   -36.199077    37373.809 
   58200    290.53129   -1418.9178    442.57674    334.81109    318.99277    37373.809 
   58300    294.41981   -1436.2494    439.29831    331.74973    -423.6795    37373.809 
   58400    291.57663    -1448.873    446.49302    313.48974    108.71961    37373.809 
   58500    304.96871   -1409.9702    455.04656    421.38383   -284.47936    37373.809 
   58600    302.52666    -1388.336    453.25329    430.20386     -479.873    37373.809 
   58700    310.25614   -1371.3444    473.28798    502.11292   -210.94099    37373.809 
   58800    294.50717   -1376.0491    435.56113    388.60708    143.76938    37373.809 
   58900    309.20183   -1376.4904    432.16819    451.08911    467.78559    37373.809 
   59000     294.4315   -1359.0802    441.98345    411.65679    8.8041367    37373.809 
   59100    292.48377   -1413.0419    454.03771    360.95941   -158.32314    37373.809 
   59200    305.85725   -1375.2459    442.00754    447.07901    248.56759    37373.809 
   59300    301.18379   -1357.7483     453.9415    455.41955   -698.60878    37373.809 
   59400    293.52984   -1370.3892    444.11235    398.40758   -186.88309    37373.809 
   59500    306.26878   -1403.4149    412.19321    390.95296   -311.43011    37373.809 
   59600    291.31157   -1369.9156     466.1051    410.86303   -59.757493    37373.809 
   59700    298.65545   -1406.8274    419.74084    360.72947   -159.98113    37373.809 
   59800    295.76935    -1402.906    448.50628    380.39147    47.478166    37373.809 
   59900    302.44293   -1364.5607    446.08709    446.43515   -288.31841    37373.809 
   60000    309.95074   -1389.8046    436.64325    445.62976   -312.13324    37373.809 
   60100     310.2574   -1403.9694    426.53593    422.74159   -300.54378    37373.809 
   60200    297.23542   -1392.5848    454.24865    403.07134   -733.83547    37373.809 
   60300     304.8476   -1448.7029    431.66431    358.72226   -505.41474    37373.809 
   60400    306.44849   -1372.6818    462.18122    472.48503   -47.991739    37373.809 
   60500    292.17277   -1356.2691    413.68681    375.97778    135.33666    37373.809 
   60600    296.78725   -1379.5547    437.83176    397.66205     152.6188    37373.809 
   60700    303.74887   -1348.7006    442.00839    464.11011    399.01325    37373.809 
   60800    303.84164   -1347.3171    428.30397    452.20797     481.8825    37373.809 
   60900    306.47572     -1360.47    435.94743    458.58591    430.64188    37373.809 
   61000    300.74684   -1320.5668    450.28741      486.975    729.67909    37373.809 
   61100    301.62566   -1340.6663    428.83342    449.38755    557.98089    37373.809 
   61200    303.82401   -1391.2287    440.95056    420.86332    654.26732    37373.809 
   61300    291.96598    -1356.251    433.03319    394.40899    238.74005    37373.809 
   61400    293.27859   -1396.3567    437.54263    364.73647   -211.83723    37373.809 
   61500    305.87493   -1370.5547     448.1495    457.99196   -251.69823    37373.809 
   61600    300.69676   -1333.5908    448.99028     472.4278    442.48843    37373.809 
   61700     303.1843    -1321.523    457.73999    504.47154     584.1581    37373.809 
   61800    290.07333   -1309.5509    465.13379    464.66834    559.39548    37373.809 
   61900     290.3651   -1354.3586    442.39184    398.43533    526.60899    37373.809 
   62000    302.07589   -1341.9883    455.17371    476.43767    996.04606    37373.809 
   62100    306.75232   -1395.4366    460.13597    449.05619    1092.6262    37373.809 
   62200     304.4198   -1404.4485    444.06422    413.44594    182.70682    37373.809 
   62300    306.38424   -1372.8333    459.57919    469.44151    177.05829    37373.809 
   62400    301.99618   -1358.2279    462.41713    467.08184    719.76503    37373.809 
   62500    306.40374   -1378.5315    427.35489    431.60707    726.87922    37373.809 
   62600    295.15894   -1407.5816    441.94227    366.39712    706.28144    37373.809 
   62700    304.87304   -1426.2333    450.23426    399.87665     428.9061    37373.809 
   62800    309.78954   -1436.7416     440.2548    401.57675    178.26373    37373.809 
   62900    300.13989   -1406.3283    442.49556    390.68253   -83.660454    37373.809 
   63000    304.17455   -1393.1925    432.29556    411.82646   -299.51674    37373.809 
   63100    299.75968   -1364.6765    451.30996    439.43281   -523.20388    37373.809 
   63200    303.55478   -1393.3377    429.32283    405.91162   -267.41963    37373.809 
   63300    299.83598   -1399.2359    436.04721    389.95499   -167.60283    37373.809 
   63400    304.30878   -1412.0421     461.9807    423.26781    86.017308    37373.809 
   63500    307.75257   -1428.8935    419.50971    379.48701   -44.058453    37373.809 
   63600    293.28842   -1424.0763      442.284    341.80269   -384.44812    37373.809 
   63700    301.98308   -1423.0153    426.18102    365.99916   -518.69275    37373.809 
   63800    302.20752   -1385.4153    430.08143    408.51246    115.73463    37373.809 
   63900    293.13735   -1434.4255    434.08031    322.56796   -162.28498    37373.809 
   64000    301.57091   -1405.0274    438.38074     394.3267    229.77339    37373.809 
   64100    304.63034   -1357.3449    446.85621    464.29177   -115.30085    37373.809 
   64200    301.46435   -1397.0569    453.21409    416.64959    365.25294    37373.809 
   64300    296.68482   -1417.5547    449.56555    370.93357   -210.13599    37373.809 
   64400    297.12441   -1388.1732    443.70207    396.43542   -171.90745    37373.809 
   64500    304.46829   -1383.9101    443.25623    433.39523    136.09402    37373.809 
   64600    291.06008   -1376.3546    457.99723    395.18121     546.8515    37373.809 
   64700    297.38098   -1386.3383    447.44291     403.1691     464.6047    37373.809 
   64800    302.11134   -1382.6385    444.10335     424.8771    654.30237    37373.809 
   64900    309.15762   -1395.7473    459.51115    458.97567    624.59307    37373.809 
   65000    320.07879   -1391.3144    462.50781    515.69188     909.9969    37373.809 
   65100    297.88872   -1427.7534    421.54127    338.14367    605.15873    37373.809 
   65200    288.96461   -1347.6597    455.48212    411.90421    13.086165    37373.809 
   65300    304.14396   -1365.9535    451.60557    458.23749     56.27651    37373.809 
   65400    304.23791   -1413.1739    439.76417    399.59962   -264.47224    37373.809 
   65500    295.70902   -1334.5761    458.42856    458.37144   -549.07546    37373.809 
   65600    295.83572   -1407.0843    443.78161    371.78807    -1213.857    37373.809 
   65700    311.04789   -1425.4624    447.19935    425.47941   -703.85521    37373.809 
   65800    287.41573   -1413.9901    428.27606    311.37772   -461.26746    37373.809 
   65900    302.64705   -1387.6884    457.71376    435.85524   -339.03549    37373.809 
   66000    306.75156   -1383.2711    437.63036    438.71266   -428.78047    37373.809 
   66100     294.2903   -1410.0079    433.35008    351.45856    30.304728    37373.809 
   66200    285.79187   -1398.7241    439.68839    330.72773    170.82154    37373.809 
   66300     300.1057   -1408.3512    442.61155     388.6213    584.34262    37373.809 
   66400    300.24541   -1395.6131    453.23231    412.61065    631.76258    37373.809 
   66500    301.79214   -1425.5054    441.25338    377.71972    226.71796    37373.809 
   66600    309.09896   -1458.1933    448.92309    385.67686    -222.9521    37373.809 
   66700    310.62091   -1405.8932    449.94448    445.86678   -149.26841    37373.809 
   66800    298.04302   -1403.3273    460.52168    402.24651   -350.28668    37373.809 
   66900    292.97809   -1405.8053    448.47036    364.85943   -771.05843    37373.809 
   67000      300.933   -1339.9921    472.71638    490.81876   -234.35915    37373.809 
   67100    302.42552   -1333.7836    455.30588    486.35244   -475.98952    37373.809 
   67200    295.09579   -1333.8827    464.42952     462.2983    73.737149    37373.809 
   67300    307.60156   -1321.7473    443.60007    510.04214    -566.0384    37373.809 
   67400    299.33789   -1333.0008    460.98936    478.88436   -166.81857    37373.809 
   67500    297.09343   -1335.8977    476.08924    480.95828   -316.42479    37373.809 
   67600    301.76978   -1367.3502     462.2482    456.76882     34.70873    37373.809 
   67700    288.73955   -1407.6348    456.52611     351.9574   -160.90587    37373.809 
   67800    310.01479   -1413.9629    448.51244    433.62973   -28.580789    37373.809 
   67900     301.4418   -1409.3114    441.92452    393.00374    169.88781    37373.809 
   68000    285.70657    -1374.505    466.45457    381.32801    218.88171    37373.809 
   68100    298.15738   -1424.6089    468.16283    389.12219    31.868678    37373.809 
   68200    306.24119   -1427.6525    464.29629    418.69389    669.51527    37373.809 
   68300    295.29393   -1414.9961    460.01121    377.66075    124.45852    37373.809 
   68400    290.37196   -1410.1314     468.8549    369.15659    214.50627    37373.809 
   68500    303.89273   -1375.8817    447.06673    442.63666    604.18756    37373.809 
   68600    321.02047   -1381.4842    470.94972    538.21366    317.17416    37373.809 
   68700    293.97876   -1378.8888    466.72009     414.5417    7.5939975    37373.809 
   68800    299.04742   -1332.1205    448.65406    466.11853    -220.1315    37373.809 
   68900     303.4778   -1336.5823    482.31115    515.30787    518.08102    37373.809 
   69000    295.54063   -1367.4788    449.24237     415.5226    1.5689564    37373.809 
   69100    297.26287   -1404.7155    457.76486    394.58078   -139.10754    37373.809 
   69200    293.00099   -1366.9282    455.11237    410.48195    219.06548    37373.809 
   69300    307.79985   -1388.4933     478.4184    479.00932    82.367012    37373.809 
   69400    300.22143    -1389.756    476.25676      441.384   -16.577737    37373.809 
   69500    296.35186   -1388.0065    442.20769    391.62127    83.700646    37373.809 
   69600    296.58488   -1354.7905    492.69437    476.37553   -371.19331    37373.809 
   69700    300.73718   -1402.9074    459.56293    413.86625    4.5373184    37373.809 
   69800    299.26716    -1403.725     458.5658    405.41749    37.995763    37373.809 
   69900    311.16007   -1399.9788    462.67914    466.94904     35.39645    37373.809 
   70000    315.42961   -1382.7523    468.73454    509.49919    638.85309    37373.809 
   70100    298.25242   -1365.6489    467.25885    447.60713   -257.58154    37373.809 
   70200    316.83269   -1372.8207    461.90694    518.93519    48.620453    37373.809 
   70300    296.40934   -1378.5226    443.98477    403.14168   -300.17928    37373.809 
   70400    297.14132   -1400.9934    454.12421    394.11365   -443.08681    37373.809 
   70500    313.50706   -1380.6495    446.29492    480.48601    404.99722    37373.809 
   70600    296.20784    -1408.231     487.2279    415.76704    8.8638353    37373.809 
   70700    294.46294   -1403.0547    473.06394    398.90465    883.10756    37373.809 
   70800    296.15681   -1430.4731    473.23054    379.29722    836.03499    37373.809 
   70900    295.67018   -1368.4237    482.80345    448.72342    1000.6063    37373.809 
   71000    303.47219   -1375.8815    469.70327    463.37547     510.3102    37373.809 
   71100    295.59394   -1429.7521    470.12895    374.37647    411.52398    37373.809 
   71200    296.37914   -1407.2009    470.27212     400.6144    230.09135    37373.809 
   71300     298.3516    -1417.585    446.51987    375.37965   -64.774566    37373.809 
   71400    287.13672   -1455.8429    457.79207    297.78176   -276.44905    37373.809 
   71500    306.38117   -1425.1395    460.58089    418.12317    44.536683    37373.809 
   71600    290.78761   -1415.4333    469.47719     366.3528    339.29795    37373.809 
   71700    302.73497   -1394.6326    475.74298    447.33702    272.34859    37373.809 
   71800    301.11924   -1417.5486    438.82024    380.20665     395.4222    37373.809 
   71900    307.74587   -1419.6643    461.66476    430.84104    696.20802    37373.809 
   72000    305.64905   -1407.2762    459.10764    431.20923   -206.16389    37373.809 
   72100    295.85863   -1375.5213    437.52693     397.1998   -139.69479    37373.809 
   72200    293.38198   -1399.3415    477.19603    401.87168   -272.86349    37373.809 
   72300    299.47109    -1390.367    499.89022    461.02027   -233.36392    37373.809 
   72400    301.73597   -1405.5845    451.69242    407.82622   -288.60972    37373.809 
   72500    293.17576   -1424.2886    469.80596    368.60388    -407.8136    37373.809 
   72600    301.79636   -1411.6755    459.83156    410.14681   -721.24715    37373.809 
   72700    293.60268    -1395.202    470.26035    400.07151   -571.35196    37373.809 
   72800     305.4172   -1396.8924    443.73167    425.17076   -258.41847    37373.809 
   72900    312.57257    -1445.484    464.57918    429.71845   -458.82104    37373.809 
   73000    300.68036     -1433.65    476.77045    400.07479   -347.27751    37373.809 
   73100    303.14877   -1377.2023     465.4963    456.38821   -568.58594    37373.809 
   73200    291.76518   -1444.2073    484.22784    356.74117   -135.15478    37373.809 
   73300    299.79386   -1428.0441    459.34121    384.25067   -131.81042    37373.809 
   73400    302.61983   -1420.2697    478.46106    423.89845   -468.86609    37373.809 
   73500    306.06589    -1443.191    478.66803    416.73597      640.206    37373.809 
   73600    300.07941   -1424.8956     446.5985    375.94524   -19.622591    37373.809 
   73700    300.68455   -1452.2659    446.63456    351.34197   -444.45589    37373.809 
   73800    304.24933   -1371.6365    474.60742    476.03189   -267.15193    37373.809 
   73900    300.55116   -1406.2236    441.08877    391.23647   -93.186633    37373.809 
   74000    288.09037    -1395.383    450.73345    355.48684   -138.36465    37373.809 
   74100    294.00129   -1389.9831    468.01138    404.84032   -154.77953    37373.809 
   74200    309.82246   -1409.7638    481.04452    469.49289   -469.04874    37373.809 
   74300    295.45093   -1432.7206    444.83471    345.46834   -26.699671    37373.809 
   74400    295.42935   -1417.0419    462.46037    378.67527   -516.16474    37373.809 
   74500    296.39453   -1419.1185    453.75207    372.24626     52.48367    37373.809 
   74600    292.29918   -1410.9155    464.00028    372.21531   -12.087115    37373.809 
   74700     291.8244   -1406.5923    474.64515    385.04067    187.21432    37373.809 
   74800    294.70091   -1437.8859    447.86538    339.94891   -312.03459    37373.809 
   74900    299.83559   -1427.0599    455.23782    381.31992   -197.22976    37373.809 
   75000    291.44598   -1438.5918    463.25529    339.94355   -394.97615    37373.809 
   75100    310.18392    -1425.113    445.08174    419.81213    187.63168    37373.809 
   75200     298.9071   -1445.7455    438.27142    341.47764    217.92496    37373.809 
   75300    297.37415   -1397.7102     470.7634    415.08685   -179.64776    37373.809 
   75400    308.87088   -1390.8125    454.95416    458.05945    10.417228    37373.809 
   75500    302.18921   -1394.7006     446.6138    415.67695   -88.282897    37373.809 
   75600    307.69708   -1429.5438    464.55851     423.6352   -650.87933    37373.809 
   75700    304.14001   -1429.6002    459.13923    402.10659    200.79814    37373.809 
   75800    301.55531   -1409.5425      474.216    425.57649    -203.5195    37373.809 
   75900    293.18267   -1423.9538     428.7378    327.90169   -305.95279    37373.809 
   76000    294.67964   -1465.5249    451.43922    315.78774   -209.88772    37373.809 
   76100    304.39343   -1441.2185    467.56196    400.05469    188.87089    37373.809 
   76200     293.7864   -1428.2337     446.4577    344.06631   -504.31634    37373.809 
   76300    296.60355   -1439.3673    437.84804    337.03672   -190.74055    37373.809 
   76400    308.88241   -1407.7035    481.97267     468.2389   -199.18333    37373.809 
   76500    306.47606   -1396.2898    468.41602    455.23627     753.1995    37373.809 
   76600    303.71286   -1369.0527    467.40606    468.99322    619.90485    37373.809 
   76700    302.71056   -1425.1507    483.64594    424.61177    198.07013    37373.809 
   76800     300.0774   -1364.3812    489.23454     479.0866    558.49326    37373.809 
   76900     312.1048   -1410.2408    444.46985     442.7413    584.30981    37373.809 
   77000    285.01298   -1428.0831    496.04211    354.20726    1021.6618    37373.809 
   77100    305.27832   -1406.7805    501.45553    472.37976    633.87522    37373.809 
   77200    302.13316   -1429.5438    478.44106    412.40801    667.31851    37373.809 
   77300    303.03438    -1378.356    474.49653    463.71846    242.54431    37373.809 
   77400    304.19362   -1364.1316    466.01887     474.6968   -60.287133    37373.809 
   77500    301.56949   -1390.9364    460.55793     430.5885    341.07928    37373.809 
   77600    305.70683   -1399.6087    452.47325    432.50314    228.98109    37373.809 
   77700    306.03268   -1406.8247    468.37778    442.66219    558.00348    37373.809 
   77800    294.68306   -1377.4093    458.53025    411.00984   -54.766958    37373.809 
   77900    297.54009   -1421.2931    480.54486    402.03426   -94.954377    37373.809 
   78000    305.89922   -1423.0886     488.4898    445.90804   -193.90264    37373.809 
   78100    303.74453   -1410.7121    463.77849    423.84918   -272.58259    37373.809 
   78200    299.19947   -1404.6593    488.94465    434.55651    88.467574    37373.809 
   78300    302.20765   -1430.6876    486.48369    419.64297    123.15979    37373.809 
   78400     294.9338   -1388.5736    501.26475    443.71156    598.79295    37373.809 
   78500    308.73041   -1433.6758    483.91559    443.52357    450.89497    37373.809 
   78600    308.95164   -1417.6201    477.39086    454.05296    486.37635    37373.809 
   78700    294.97751   -1422.0845    485.64127    394.77447    525.47692    37373.809 
   78800    298.67502   -1415.9614    491.91778    423.86079     426.1015    37373.809 
   78900    300.08731   -1417.2635    474.45699    411.47143    445.31564    37373.809 
   79000    299.80122   -1421.5443    463.39948    394.84207    177.08988    37373.809 
   79100     305.8278   -1408.7539    485.82944    457.26001    300.33404    37373.809 
   79200      302.549   -1418.8187    434.79601    381.36473    115.90467    37373.809 
   79300      303.328   -1421.5428     453.0793    400.43947   -543.50316    37373.809 
   79400    288.79186   -1427.5438    464.37123    340.12964    42.907969    37373.809 
   79500    299.44789   -1436.9174    484.59876    399.07368   -3.2222614    37373.809 
   79600    301.07636   -1420.6706    465.17306    403.24395    175.79429    37373.809 
   79700    309.15279   -1405.0001    494.67452    484.86436   -325.33776    37373.809 
   79800    313.19239   -1405.5228    465.31713     473.2148    381.09283    37373.809 
   79900    297.31988   -1393.7604    471.12968    419.15799   -25.912228    37373.809 
   80000    288.18011   -1407.2683    479.18008    372.45316   -137.44647    37373.809 
   80100    308.54056   -1414.5258    476.52788    454.42907   -202.95413    37373.809 
   80200    300.74461   -1432.7348    434.28987    358.79934   -162.19878    37373.809 
   80300    305.05788   -1452.7476    476.86726    400.82947    87.876558    37373.809 
   80400    307.96071   -1433.2663     459.7024    416.24631    276.40691    37373.809 
   80500    286.82979   -1432.8814    438.78595    300.35203     328.2042    37373.809 
   80600    313.17018   -1418.5527    496.17882    490.94632   -65.758159    37373.809 
   80700    304.28186   -1455.7064    485.22863    402.72995    125.78438    37373.809 
   80800    296.95817   -1452.0715    489.58383    377.66863    442.08367    37373.809 
   80900    311.16086   -1454.8918    467.86042    417.22093    50.579511    37373.809 
   81000    292.79913   -1494.4893    460.68182    287.57936   -430.47093    37373.809 
   81100    296.01997   -1463.8092    455.61216    327.72527   -407.33318    37373.809 
   81200    302.32448   -1450.0665    475.58681    389.89452   -204.82229    37373.809 
   81300    303.65393   -1470.5106    454.35255    354.21586   -187.39759    37373.809 
   81400    311.27957   -1421.3631    487.73981    471.16468   -407.62341    37373.809 
   81500    310.86711   -1421.8268    459.50261    440.60239   -206.20517    37373.809 
   81600    293.39625   -1414.3414    491.27097    401.01108   -452.16464    37373.809 
   81700    311.00146   -1446.3763    484.79125    441.94787   -601.19411    37373.809 
   81800    294.34193   -1432.1713    469.16137    365.33949   -636.87017    37373.809 
   81900    295.24435   -1459.9553     477.5059    349.97255   -537.79885    37373.809 
   82000     302.8082   -1462.6169    472.22894    376.16927   -745.60062    37373.809 
   82100    306.01955   -1486.7506    475.32178    369.62101   -188.95827    37373.809 
   82200    293.80926   -1548.9584    465.44047    242.42751    286.51789    37373.809 
   82300    298.09983   -1527.2079    477.65743    295.75811     187.9334    37373.809 
   82400    309.88415    -1504.839    469.87064    363.52218     626.0967    37373.809 
   82500    304.50766   -1472.1726    481.52372     383.5779    522.95168    37373.809 
   82600    293.26817   -1458.6475    480.94717     345.8032    572.27472    37373.809 
   82700    301.05473    -1512.956    465.32741    311.01525     194.9661    37373.809 
   82800     309.9672   -1486.7334     492.6846    404.81654    218.47438    37373.809 
   82900    286.95195   -1488.1779    464.92607    271.74697   -55.467454    37373.809 
   83000    299.27925   -1471.9059    475.20306    353.92837    342.53658    37373.809 
   83100    294.22214   -1438.0375    468.79375    358.56496     341.2501    37373.809 
   83200     305.5201   -1467.3031    468.89972    380.39246     300.4045    37373.809 
   83300    308.53931   -1432.5354     509.4796    469.36556      252.262    37373.809 
   83400    292.38362   -1502.4803     482.5275    299.55881    183.48473    37373.809 
   83500    308.70547   -1477.3374    493.47672    409.31059    369.65498    37373.809 
   83600    296.52337   -1481.0907    477.24145    334.34481    451.91055    37373.809 
   83700    295.18786   -1438.0443    499.22567    393.34837    575.33643    37373.809 
   83800    300.13684    -1465.494    467.07948    356.08695    218.91507    37373.809 
   83900    289.08357   -1420.1995     496.1345    380.55368   -10.029439    37373.809 
   84000    290.60484   -1431.9098    503.74069    383.31493   -314.16554    37373.809 
   84100    290.08695   -1427.7368    465.20818    346.61826   -253.19243    37373.809 
   84200     302.3869     -1439.18    486.28451    411.76038   -225.38545    37373.809 
   84300    311.70153    -1472.443    484.16689    418.41616    255.57324    37373.809 
   84400    303.55566   -1523.7504    457.45762    303.63771    166.28352    37373.809 
   84500    291.88363   -1465.0801    486.75658     338.9317   -651.19642    37373.809 
   84600    296.47133   -1456.1573    455.50049     337.3024     15.07954    37373.809 
   84700     297.4075   -1453.6441    481.42629    369.96634    227.11409    37373.809 
   84800    300.35668   -1487.7648    504.82478    372.55355    188.17932    37373.809 
   84900    294.23893   -1459.7972    474.16362    342.25091   -168.52033    37373.809 
   85000    299.75959   -1468.3901    439.06422    323.47307    262.95315    37373.809 
   85100    300.90943   -1473.4798    500.68801    385.19635    644.15118    37373.809 
   85200    306.89545   -1444.5686    471.35147    411.78559    605.94583    37373.809 
   85300    292.34175   -1460.7271    479.53182    338.12736    3.1218604    37373.809 
   85400    296.59579   -1462.5641    493.27152    369.22837   -541.20207    37373.809 
   85500    297.55425   -1500.3823    462.72707    305.19117    -446.5759    37373.809 
   85600    308.02251   -1479.1145    490.06752    401.04205   -224.50133    37373.809 
   85700    304.80936    -1496.509    487.91236     366.9917    216.62689    37373.809 
   85800     302.5675   -1474.1707    479.02192    370.32208    93.877958    37373.809 
   85900    299.88509    -1445.517    470.75742     378.6057    392.28643    37373.809 
   86000    300.41981   -1459.1289    508.66534    405.31501    127.23168    37373.809 
   86100    293.16256   -1447.2497    471.51122    347.28848   -599.10278    37373.809 
   86200    288.80411   -1421.9994    470.29289    351.65093   -356.53332    37373.809 
   86300    305.25107   -1402.9915    497.52594    472.11621    74.958439    37373.809 
   86400    292.18471   -1425.2953    493.13351    386.45217   -162.53718    37373.809 
   86500    299.80359   -1374.7062    488.75509    467.04641   -490.65128    37373.809 
   86600    297.38519   -1406.3018    494.33876    430.12042   -300.87884    37373.809 
   86700    296.26034   -1432.3619    482.16169    386.80688    -253.1062    37373.809 
   86800    304.56733   -1416.2762    480.61429    438.83414   -206.63631    37373.809 
   86900    300.69591   -1389.4623    497.47426     465.0365   -351.27315    37373.809 
   87000    301.94904   -1394.9308    505.44634    473.19538   -203.69672    37373.809 
   87100    296.59913   -1406.5834    496.60742    428.56003   -640.51542    37373.809 
   87200    299.39809   -1396.8313    482.35961    436.69583   -407.86559    37373.809 
   87300    308.30688   -1390.0608    487.46769    488.77929   -1318.4668    37373.809 
   87400    318.39361   -1417.3807    490.05367    509.56634   -871.06378    37373.809 
   87500    305.36295    -1431.399    484.12831     430.8159   -572.82059    37373.809 
   87600    310.88573   -1440.1634    474.11975    436.96698   -451.92234    37373.809 
   87700    302.10711   -1498.6464    482.08772    346.83453   -193.10313    37373.809 
   87800     288.3256   -1498.9923    474.88832    277.09402   -18.669705    37373.809 
   87900    309.42986   -1482.5328    476.14804    390.05567    3.2780427    37373.809 
   88000      302.925   -1476.9301     512.3499    402.50403     553.5297    37373.809 
   88100    304.79652   -1465.7546    511.06033    420.83608    368.08034    37373.809 
[...]
  984500    302.82089   -1469.0699    549.09514    446.63974    567.59812    37373.809 
  984600    288.26487   -1475.7909    509.12557    334.25861    -277.6533    37373.809 
  984700    309.63066   -1521.9254    501.37325    376.79445    201.48796    37373.809 
  984800    296.38688   -1491.3505    549.34481    395.57244   -367.76448    37373.809 
  984900    289.86835   -1532.1952    493.70414    269.66925   -228.60573    37373.809 
  985000    302.57094   -1468.2548    525.71555    422.94724    75.664018    37373.809 
  985100    303.60548   -1463.5985    534.43079    440.98752    -10.63371    37373.809 
  985200    300.71648   -1501.3409    518.10863     373.8851   -312.87163    37373.809 
  985300    306.54628   -1513.8638    542.88721    412.45032    91.419038    37373.809 
  985400    299.20172   -1511.0744    529.15609    368.36297   -38.317772    37373.809 
  985500    302.74902   -1486.0201    528.12681    408.39677    313.86927    37373.809 
  985600    288.71025   -1484.9668     544.0733     362.0404    487.38582    37373.809 
  985700    308.88979   -1493.0116    505.04973    406.04114    398.18874    37373.809 
  985800    295.49075   -1498.4541    547.74795    382.82774    535.98763    37373.809 
  985900    291.61114   -1526.3086      515.506    305.22281     411.1528    37373.809 
  986000    296.78165   -1599.4045    507.36506    247.32027     596.5038    37373.809 
  986100    297.85775   -1567.3004    534.41626    311.33193   -234.96061    37373.809 
  986200    307.86515   -1563.5496    517.94375    343.77308    302.90332    37373.809 
  986300    293.81406   -1537.5559    552.23138    340.64261    124.21678    37373.809 
  986400    299.31601   -1544.9685    514.44096    320.26957    399.82505    37373.809 
  986500    298.96923   -1564.4041      513.541    298.36906    285.37451    37373.809 
  986600    293.87093   -1551.7723     537.3443    311.79573    257.94574    37373.809 
  986700    302.17993   -1565.5443    526.10054    324.27805    111.69193    37373.809 
  986800    303.77199        -1513    541.00029    398.90705   -5.9006264    37373.809 
  986900    305.06404   -1590.5514    506.91201    293.09833    162.42112    37373.809 
  987000    295.72321   -1592.0987     514.4021    256.88646   -103.98972    37373.809 
  987100    301.24001   -1617.8548    508.09779    249.72302    439.03923    37373.809 
  987200    296.07486   -1574.2437    515.94874    277.87496     781.5447    37373.809 
  987300    300.70691   -1552.5968    512.65261    317.12992    477.39933    37373.809 
  987400    301.57941   -1559.1311     506.7023    308.58291    813.50467    37373.809 
  987500    300.73573   -1548.0953    507.59903    316.70796    560.89165    37373.809 
  987600    309.00906   -1541.8096     526.4724    379.20417    298.05898    37373.809 
  987700    290.82804   -1556.2341    504.22853    260.48584   -146.94319    37373.809 
  987800    301.09462   -1583.4051    499.40955    274.82837    46.361057    37373.809 
  987900    292.02128   -1555.9758    534.46397    296.36452    159.74572    37373.809 
  988000    307.19799   -1600.7819    502.73397    288.32011     123.1768    37373.809 
  988100    299.58294   -1583.4476    498.36212    266.91628   -399.67971    37373.809 
  988200    291.71375   -1551.2592    527.01719     292.2465   -380.23696    37373.809 
  988300    304.31004   -1553.6822    522.98041    342.63317   -529.71587    37373.809 
  988400    302.12029   -1535.2719    501.82487    330.00569    69.895323    37373.809 
  988500    299.16964   -1549.4211     506.5526    307.26802   -234.75925    37373.809 
  988600    298.52673   -1560.7096    514.45796    300.98347    -338.4896    37373.809 
  988700    298.91837   -1613.1803    498.77812    234.60044   -305.06643    37373.809 
  988800    301.53062   -1559.2324    509.36751     310.9267   -119.24413    37373.809 
  988900    297.89652   -1584.5815     483.8634      243.673   -243.62245    37373.809 
  989000    308.51273   -1564.5722    513.75762    341.48688   -630.18325    37373.809 
  989100    292.14299   -1574.5207    499.20083     243.1058   -835.30669    37373.809 
  989200    305.10639   -1546.7361     498.7293    328.92201   -896.33529    37373.809 
  989300    306.98101   -1596.4334    512.44407    301.39955   -508.74074    37373.809 
  989400    298.95997    -1559.971    504.85933     294.0787    182.37791    37373.809 
  989500    307.41291   -1541.0242    529.45391    375.76773    354.65281    37373.809 
  989600    302.50185   -1575.7152     511.9857    301.44512    653.00584    37373.809 
  989700    294.75837   -1544.0687     513.6282    299.78821    483.15385    37373.809 
  989800     297.0649   -1508.6681    538.56951     370.5394    297.13344    37373.809 
  989900    305.38662   -1560.9121    516.34742    333.62873   -20.397356    37373.809 
  990000    294.42732   -1538.5728    513.80332    303.96524    418.97149    37373.809 
  990100    309.77247   -1534.4283    522.56292    386.12117    480.12941    37373.809 
  990200    299.93789   -1506.0899    519.66175    367.17543    233.75831    37373.809 
  990300    303.55051   -1537.9488    535.19084    367.14925    166.41162    37373.809 
  990400    292.42393   -1562.6551    551.09011    308.12848    361.91866    37373.809 
  990500     300.4844   -1534.3277    505.67367    327.41594   -81.359264    37373.809 
  990600    306.57483   -1523.9807    519.05826    378.63333   -474.41015    37373.809 
  990700     294.3529   -1531.5202    541.83693    338.71556   -236.53372    37373.809 
  990800    292.93572   -1524.4728    510.06423     307.5946   -283.42057    37373.809 
  990900    303.03692   -1508.5861    506.15847    365.16175    -290.6732    37373.809 
  991000    297.44938    -1547.509    494.67431    289.53842    82.072845    37373.809 
  991100    291.74043   -1568.2293    511.19932     259.5789   -214.26928    37373.809 
  991200    302.12682   -1503.9178    529.45229    389.01668   -100.16317    37373.809 
  991300    298.43729   -1491.4343    520.99237    376.38955    -477.7775    37373.809 
  991400    296.60481   -1517.0309    505.22007    326.75076   -120.44462    37373.809 
  991500    293.51138   -1552.1535    478.58681    251.03446    168.11403    37373.809 
  991600    297.50085   -1572.7198    511.26951    281.15514    258.90991    37373.809 
  991700    287.33334   -1507.6989    488.35622    277.37734   -83.115116    37373.809 
  991800    305.26277   -1557.7249    526.33356    346.24319    332.53684    37373.809 
  991900    295.49494     -1556.06    518.90782    296.40063    452.09998    37373.809 
  992000    308.49739    -1541.867     508.2241    358.58928     585.1951    37373.809 
  992100    286.63296   -1548.3544    518.84393    264.04869    55.569272    37373.809 
  992200    290.31466   -1525.5891    528.40765    312.99307    668.80064    37373.809 
  992300    292.56384   -1543.2134    516.39326    293.50484    707.58975    37373.809 
  992400    294.78427    -1534.682     516.1321    311.79568    741.80105    37373.809 
  992500    302.78957   -1529.2775    499.89307    337.08868    948.04644    37373.809 
  992600    302.72092   -1527.6846    516.14438    354.62311    427.01959    37373.809 
  992700    299.40392   -1554.2903    514.03548    310.93906    382.30141    37373.809 
  992800    292.62742   -1578.6762    496.52699     238.4627     463.3085    37373.809 
  992900    300.62426   -1566.6745    495.84603    285.87269    523.02634    37373.809 
  993000    299.66607   -1513.5965    514.45326    353.23368    141.05414    37373.809 
  993100    294.49615    -1532.736    519.83567      316.145   -146.24291    37373.809 
  993200    299.19171   -1549.3388    495.58948    296.48687     55.63944    37373.809 
  993300    292.88304   -1568.8906    532.50767    285.38254   -661.56634    37373.809 
  993400     296.1683   -1570.2055    504.60355    270.98971   -235.97249    37373.809 
  993500    307.49787   -1525.3085    525.04442    387.45734    451.59739    37373.809 
  993600    296.97687   -1527.4736     517.6777    330.44474    261.32722    37373.809 
  993700    293.85082    -1523.219    521.45286    324.36684    491.15485    37373.809 
  993800    300.15179   -1558.9267     514.0969     309.7391     632.0592    37373.809 
  993900    299.90065   -1528.0867    516.94222    342.29103   -162.95697    37373.809 
  994000    298.54615   -1497.3609    521.81314    371.77502     37.70069    37373.809 
  994100    288.72098   -1544.0523    514.89056    273.82064   -608.77714    37373.809 
  994200    302.66803   -1505.2096    525.81687    386.53187   -399.80472    37373.809 
  994300     298.1702   -1512.0778    540.33388    373.88218    165.59409    37373.809 
  994400    301.68784   -1486.5682    538.32605    413.25888   -120.46238    37373.809 
  994500    308.72671   -1521.9821    503.95825    375.24327    615.57711    37373.809 
  994600    293.81915   -1481.5091    535.08579    379.56676    734.52872    37373.809 
  994700    310.02118   -1515.7283    539.60989    422.99059    192.87263    37373.809 
  994800    287.68717   -1510.2147    507.23161    295.33374    295.23049    37373.809 
  994900    301.49704   -1541.0586    529.42731    349.00864    239.65716    37373.809 
  995000    300.02438   -1527.4332    519.16182     345.7226   -387.28057    37373.809 
  995100     297.8436   -1533.3236    542.41343      353.242   -145.50817    37373.809 
  995200    309.53334   -1481.0958    529.68463     445.4962    240.82207    37373.809 
  995300    295.32277     -1514.92    519.71594    337.57173   -173.81878    37373.809 
  995400     302.3943   -1487.9719    521.86374    398.58114   -139.45295    37373.809 
  995500    300.92179   -1510.7457    523.87012    371.16836    -122.4806    37373.809 
  995600    301.46784   -1492.7896    492.58448    360.30313    184.18249    37373.809 
  995700    303.08735   -1504.5498    539.75009    403.01733   -458.41332    37373.809 
  995800    296.28583   -1514.9917    515.84736     337.9777   -167.73465    37373.809 
  995900    307.22649   -1565.8665    504.16999    324.80022    188.64184    37373.809 
  996000    308.87017   -1570.5834    520.11112    343.44221   -317.22736    37373.809 
  996100    290.99049    -1562.402    539.17686    289.99929    389.45235    37373.809 
  996200    293.98053   -1564.2609    545.76274    308.22019    147.88587    37373.809 
  996300    293.41979    -1533.435    520.66072    311.41351    235.60624    37373.809 
  996400    300.43266   -1568.4861    483.39278    270.74314    267.33288    37373.809 
  996500    297.58992   -1539.2275    533.59763    337.37748   -77.022869    37373.809 
  996600    299.13679    -1504.081    483.64584    329.55311   -28.869278    37373.809 
  996700     297.0423   -1586.7688    512.24435    266.01153    -415.0316    37373.809 
  996800    300.37563   -1527.8568    502.31919    330.04153   -248.95748    37373.809 
  996900    302.86294   -1544.0171    541.12986    363.91696    191.57286    37373.809 
  997000    293.15226   -1534.4104    520.91535     309.4854    288.36791    37373.809 
  997100    297.22853   -1536.3225    511.36196    316.41589    114.39299    37373.809 
  997200     300.8045   -1536.8343     514.0237    334.70396    815.21716    37373.809 
  997300     303.2463   -1533.4706    524.45332    359.51704    1028.8617    37373.809 
  997400    296.65234   -1521.7512    524.99784    342.02272    476.95891    37373.809 
  997500     302.0272   -1545.4277     507.5096     325.1145     86.12808    37373.809 
  997600    302.51219   -1521.2915    543.67485    387.60468    349.15922    37373.809 
  997700    294.14498   -1520.3289     523.2265    330.35814   -70.947833    37373.809 
  997800    297.86665   -1533.1374    510.99166    322.11054   -54.035195    37373.809 
  997900    299.13763   -1506.6771    504.55126    347.86623   -511.87213    37373.809 
  998000    305.75077   -1520.1376    527.01918    386.71844    185.42888    37373.809 
  998100    289.77277    -1536.904    510.25026    281.07527   -17.509036    37373.809 
  998200    292.71482   -1511.2608    506.84134    316.58686    192.83188    37373.809 
  998300    304.30041    -1527.529    494.67866    340.44106    16.032001    37373.809 
  998400    301.16542   -1499.5951    543.65058    403.19886   -115.83312    37373.809 
  998500    299.87052   -1510.0671    508.63044    351.86296   -430.07433    37373.809 
  998600    301.52133   -1515.6759    504.03454    349.10827   -2.5967122    37373.809 
  998700    296.88973   -1531.4216    525.32487    333.75073   -428.45451    37373.809 
  998800    296.43847    -1498.754    534.83146    373.88836   -2.7212908    37373.809 
  998900    290.27732   -1499.5716    520.59117     331.0256   -65.079763    37373.809 
  999000    300.42675   -1553.7465    508.45466    310.51799    398.58105    37373.809 
  999100     291.4693   -1575.3342    497.46888    237.52003    218.42983    37373.809 
  999200     303.1906   -1535.2816    486.87713     319.8785    62.523065    37373.809 
  999300    298.11001   -1521.7161    538.34535    361.98375    423.68555    37373.809 
  999400    307.67595   -1529.2257    518.51057    377.80996    817.99758    37373.809 
  999500    294.47053   -1584.0311    503.24013    248.13877    918.51993    37373.809 
  999600    298.83738   -1542.9241     519.1774    324.89035    244.23888    37373.809 
  999700    292.72344   -1520.4949    506.60244    307.15273   -163.07274    37373.809 
  999800    306.95065    -1525.269    504.76149    364.74434    47.117646    37373.809 
  999900    294.40524    -1556.555      500.905    272.98502    75.563291    37373.809 
 1000000    301.19045   -1562.3139     480.9507    277.89315   -9.4677379    37373.809 
 1000100    304.48947   -1535.3955    486.07972    324.82892    48.058247    37373.809 
 1000200    296.99656   -1547.0093    523.65839    316.97869     66.40747    37373.809 
 1000300    303.79759   -1521.8288    535.65245    384.84586   -132.41673    37373.809 
 1000400    303.84565    -1505.452    547.83225    413.61939   -70.237433    37373.809 
 1000500    294.68887   -1536.8153    502.78002    295.87982   -422.72308    37373.809 
 1000600     298.2433    -1518.597    503.85553    331.21454   -81.810505    37373.809 
 1000700    300.31523    -1551.607    495.70101    299.40051    62.342853    37373.809 
 1000800    291.89633   -1513.5887    542.64428    346.36808    122.57799    37373.809 
 1000900    299.62244   -1546.0655    527.30567    333.42019    712.33387    37373.809 
 1001000    299.06502    -1558.831    514.74828    305.58175    50.304491    37373.809 
 1001100    308.14804   -1515.4882    510.70715    385.87458     85.97174    37373.809 
 1001200    295.59984   -1538.6272    530.97651    326.37557    443.70255    37373.809 
 1001300    305.21575   -1547.6262     525.0688    354.86488    350.62359    37373.809 
 1001400    295.96072   -1558.8722    524.15459    300.93731    184.61526    37373.809 
 1001500     309.2237   -1487.6202    547.24384    455.13364    146.39582    37373.809 
 1001600    293.12615   -1483.4267    533.14156    372.57746   -86.565067    37373.809 
 1001700    299.42143   -1460.9839    517.12188    407.41089   -375.94227    37373.809 
 1001800     292.6501    -1524.167    517.05725    313.60445   -670.17612    37373.809 
 1001900    297.05827   -1545.4898    516.41333    311.53159    45.517126    37373.809 
 1002000    297.11155   -1533.6132     539.2916    346.52692   -281.03797    37373.809 
 1002100     301.2247   -1529.4485    491.69374    321.65614   -91.949413    37373.809 
 1002200    299.03134   -1474.1357    521.01309    396.38976    64.526835    37373.809 
 1002300    292.73285   -1543.4045    518.86764    296.55078   -498.29708    37373.809 
 1002400    305.49233   -1509.3871    525.76252    395.04596   -190.01808    37373.809 
 1002500    304.56278   -1517.1697     524.9772    382.28302   -370.92689    37373.809 
 1002600    292.98051   -1571.0581    498.72757    249.87481   -549.94484    37373.809 
 1002700    310.44334   -1545.0532    496.92423    352.88518   -164.92559    37373.809 
 1002800    297.01658    -1482.539    524.73535    382.61621   -984.87908    37373.809 
 1002900    306.39315   -1465.7662    528.31454    445.28424   -651.95662    37373.809 
 1003000    294.26606   -1480.8933    526.28578    373.39941   -528.88704    37373.809 
 1003100    295.94605   -1469.9892    558.36258    423.96206   -1002.6319    37373.809 
 1003200    302.93849   -1534.7609    509.89573    342.27997   -454.66712    37373.809 
 1003300    301.83348   -1527.5524    546.97064    381.57655   -500.64909    37373.809 
 1003400    292.38787   -1573.0074    531.96383     278.4872   -301.76118    37373.809 
 1003500    299.94562   -1507.8831    518.21239    363.96781   -82.004951    37373.809 
 1003600    303.81152   -1511.9928     502.7329    361.82517   -72.824746    37373.809 
 1003700    302.50955   -1493.6683    524.50269    396.04378     -22.8324    37373.809 
 1003800    306.52922   -1502.3678    501.83913    382.82127    125.01843    37373.809 
 1003900    307.62348   -1497.1879    540.08261    431.18294    719.42798    37373.809 
 1004000    295.44695   -1484.3629    513.55458    362.52793    560.03243    37373.809 
 1004100    301.07254   -1522.3634    511.92962    348.29048    536.27268    37373.809 
 1004200    299.98226   -1497.5297    561.44284    417.71696    551.04823    37373.809 
 1004300     295.1167    -1532.826    504.59973    303.61957    500.80265    37373.809 
 1004400    305.77655   -1500.6976     504.9623    384.21786   -4.5909506    37373.809 
 1004500    305.02852   -1451.9433    537.05867    461.69273    -27.08579    37373.809 
 1004600    297.06762   -1494.8345    529.95432    375.77006   -282.03047    37373.809 
 1004700    300.40696   -1515.6212    518.07839    358.17775   -571.97477    37373.809 
 1004800    297.31526   -1479.8013    520.85204    382.81854   -761.89929    37373.809 
 1004900    304.77874     -1489.58    518.22227    404.09237    -347.9126    37373.809 
 1005000    302.66079   -1497.9182    515.71419    383.68793   -506.15809    37373.809 
 1005100    299.31276   -1502.1957    496.20613    344.79287   -684.09913    37373.809 
 1005155    303.54408    -1479.936    522.81475     412.7569   -639.28614    37373.809 
Loop time of 599.562 on 32 procs for 1000000 steps with 1515 atoms

Performance: 144.105 ns/day, 0.167 hours/ns, 1667.885 timesteps/s
100.0% CPU use with 32 MPI tasks x no OpenMP threads

MPI task timing breakdown:
Section |  min time  |  avg time  |  max time  |%varavg| %total
---------------------------------------------------------------
Pair    | 236.35     | 275.64     | 305.02     |  97.7 | 45.97
Bond    | 1.464      | 1.5965     | 1.7815     |   6.4 |  0.27
Neigh   | 38.708     | 38.823     | 38.924     |   1.4 |  6.48
Comm    | 241.15     | 270.68     | 310.07     |  99.1 | 45.15
Output  | 0.39033    | 0.40773    | 0.83333    |  12.0 |  0.07
Modify  | 9.0194     | 9.3064     | 9.4959     |   4.2 |  1.55
Other   |            | 3.111      |            |       |  0.52

Nlocal:        47.3438 ave          73 max          23 min
Histogram: 4 2 2 4 5 2 5 3 2 3
Nghost:        1944.38 ave        2041 max        1874 min
Histogram: 3 4 6 3 2 3 6 4 0 1
Neighs:        5198.81 ave       10590 max        2179 min
Histogram: 5 4 7 4 1 4 5 1 0 1

Total # of neighbors = 166362
Ave neighs/atom = 109.80990
Ave special neighs/atom = 2.0369637
Neighbor list builds = 49530
Dangerous builds = 0

# Output the system volume
variable v equal vol
print 'The system volume is $v'
The system volume is 37373.8087200066

# Outputs
variable A equal xhi-xlo
variable B equal yhi-ylo
variable C equal zhi-zlo
variable D equal xy
variable E equal xz
variable F equal yz
print 'Lattice vectors'
Lattice vectors
print '$A 0 0'
33.4340601548579 0 0
print '$D $B 0'
0 33.4340601548579 0
print '$E $F $C'
0 0 33.4340601548579
Total wall time: 0:10:04
