LAMMPS data file
 1518 atoms
 1017 bonds
 530 angles
 37 dihedrals
 2 impropers
 7 atom types
 8 bond types
 4 angle types
 3 dihedral types
 1 improper types
 0 15 xlo xhi
 0 15 ylo yhi
 0 15 zlo zhi
 0 0 0 xy xz yz

# Atom types
#
# 1 C_3
# 2 N_2
# 3 C_2
# 4 O_2
# 5 H_
# 6 H__HB
# 7 O_3

# Bond Coeffs
#
# 1 C_3*C_3
# 2 C_3*H_
# 3 N_2*C_2
# 4 C_3*N_2
# 5 N_2*H__HB
# 6 C_2*O_2
# 7 C_2*H_
# 8 O_3*H__HB

# Angle Coeffs
#
# 1 C_3
# 2 N_2
# 3 C_2
# 4 O_3

# Dihedral Coeffs
#
# 1 A1
# 2 C1
# 3 B1

# Inversion Coeffs
#
# 1 1

 Masses

 1 12.01
 2 14.01
 3 12.01
 4 16
 5 1.01
 6 1.01
 7 16

 Atoms # full

1 1 1 0 2.68711241163785 12.9762364090484 13.8349316382504
2 1 1 0 3.19721824483899 11.8037834036952 11.5949872462682
3 1 2 0 3.71900674433162 10.7142164834297 9.47031402243813
4 1 3 0 3.01589097585248 10.0347951351527 8.52662073666073
5 1 1 0 3.37670427931111 11.9705749777784 10.0657073849464
6 1 1 0 2.86584968882348 13.14121889908 12.3090424372507
7 1 4 0 1.94901546813059 10.5313915346205 8.08884282828852
8 1 5 0 2.45609951653219 13.943207278918 14.2859644298726
9 1 5 0 1.86790899938864 12.2873061618523 14.0505187757551
10 1 5 0 3.60362236590436 12.5917331871423 14.2868067051374
11 1 5 0 4.11818719834357 11.3916203957709 12.018133345836
12 1 5 0 2.38871892379007 11.0900202547751 11.7785747052817
13 1 6 0 4.54591801037258 10.3143912612367 9.77845412010934
14 1 5 0 4.19781607484433 12.6632262634196 9.86849147347945
15 1 5 0 2.46624537380159 12.3996259772596 9.63884851925121
16 1 5 0 1.94295033688443 13.5557810821196 11.8941351191857
17 1 5 0 3.67157774089405 13.8582172474086 12.1290317858973
18 1 5 0 3.46020138660923 8.78552621845217 8.0266379442977
19 2 6 0 8.08796224926598 1.45027072675526 12.3811150866095
20 2 7 0 9.04796224926598 1.45027072675526 12.3811150866095
21 2 6 0 9.28796224926598 0.520270726755261 12.3811150866095
22 3 6 0 10.507010821458 8.5840327087231 9.96315297670662
23 3 7 0 11.467010821458 8.5840327087231 9.96315297670662
24 3 6 0 11.707010821458 7.6540327087231 9.96315297670662
25 4 6 0 0.331138039911166 13.4474425196555 11.010647675721
26 4 7 0 1.29113803991117 13.4474425196555 11.010647675721
27 4 6 0 1.53113803991117 12.5174425196555 11.010647675721
28 5 6 0 11.0347640099656 8.51130155887455 11.8475780985318
29 5 7 0 11.9947640099656 8.51130155887455 11.8475780985318
30 5 6 0 12.2347640099656 7.58130155887455 11.8475780985318
31 6 6 0 1.57499810258858 12.4877361689601 7.39080341532826
32 6 7 0 2.53499810258858 12.4877361689601 7.39080341532826
33 6 6 0 2.77499810258858 11.5577361689601 7.39080341532826
34 7 6 0 5.4020311105717 5.36068606929854 7.05446718377061
35 7 7 0 6.3620311105717 5.36068606929854 7.05446718377061
36 7 6 0 6.6020311105717 4.43068606929854 7.05446718377061
37 8 6 0 9.43909817651845 3.4135462836735 11.8060433096252
38 8 7 0 10.3990981765185 3.4135462836735 11.8060433096252
39 8 6 0 10.6390981765185 2.48354628367349 11.8060433096252
40 9 6 0 1.3379733629711 6.99420134345069 12.7164910174906
41 9 7 0 2.2979733629711 6.99420134345069 12.7164910174906
42 9 6 0 2.5379733629711 6.0642013434507 12.7164910174906
43 10 6 0 2.91575160037726 1.97224303189665 9.43439065245911
44 10 7 0 3.87575160037726 1.97224303189665 9.43439065245911
45 10 6 0 4.11575160037726 1.04224303189665 9.43439065245911
46 11 6 0 1.87948475752026 14.8730200707819 8.62576833693311
47 11 7 0 2.83948475752026 14.8730200707819 8.62576833693311
48 11 6 0 3.07948475752026 13.9430200707819 8.62576833693311
49 12 6 0 7.78097873713821 8.36402095546015 7.9743341775611
50 12 7 0 8.74097873713821 8.36402095546015 7.9743341775611
51 12 6 0 8.98097873713821 7.43402095546015 7.9743341775611
52 13 6 0 1.31173023182899 13.3776581745502 2.08573465934023
53 13 7 0 2.27173023182899 13.3776581745502 2.08573465934023
54 13 6 0 2.51173023182899 12.4476581745502 2.08573465934023
55 14 6 0 9.57977902304381 6.07380948186852 14.8930292541627
56 14 7 0 10.5397790230438 6.07380948186852 14.8930292541627
57 14 6 0 10.7797790230438 5.14380948186852 14.8930292541627
58 15 6 0 9.16693962106481 1.08034360263497 6.4217839599587
59 15 7 0 10.1269396210648 1.08034360263497 6.4217839599587
60 15 6 0 10.3669396210648 0.150343602634966 6.4217839599587
61 16 6 0 12.8130141498707 12.7058338971715 1.9847538380418
62 16 7 0 13.7730141498707 12.7058338971715 1.9847538380418
63 16 6 0 14.0130141498707 11.7758338971715 1.9847538380418
64 17 6 0 11.6088893757854 0.410800124928355 4.65582125703804
65 17 7 0 12.5688893757854 0.410800124928355 4.65582125703804
66 17 6 0 12.8088893757854 -0.519199875071645 4.65582125703804
67 18 6 0 1.93234899125062 8.69037645327859 3.48058625590056
68 18 7 0 2.89234899125062 8.69037645327859 3.48058625590056
69 18 6 0 3.13234899125062 7.76037645327859 3.48058625590056
70 19 6 0 7.15659907364287 8.39420651126653 14.2533033527434
71 19 7 0 8.11659907364287 8.39420651126653 14.2533033527434
72 19 6 0 8.35659907364287 7.46420651126653 14.2533033527434
73 20 6 0 5.67489075983875 3.87716092559509 8.00650369492359
74 20 7 0 6.63489075983875 3.87716092559509 8.00650369492359
75 20 6 0 6.87489075983875 2.94716092559509 8.00650369492359
76 21 6 0 0.125677151810378 6.36895662563853 11.764317790512
77 21 7 0 1.08567715181038 6.36895662563853 11.764317790512
78 21 6 0 1.32567715181038 5.43895662563853 11.764317790512
79 22 6 0 5.94237988276407 8.29496333882213 5.31377020874061
80 22 7 0 6.90237988276407 8.29496333882213 5.31377020874061
81 22 6 0 7.14237988276407 7.36496333882213 5.31377020874061
82 23 6 0 1.8769060161151 14.9947063931637 9.0405200002715
83 23 7 0 2.8369060161151 14.9947063931637 9.0405200002715
84 23 6 0 3.0769060161151 14.0647063931637 9.0405200002715
85 24 6 0 7.74472820034251 9.72107164602727 1.75897481502034
86 24 7 0 8.70472820034251 9.72107164602727 1.75897481502034
87 24 6 0 8.94472820034251 8.79107164602727 1.75897481502034
88 25 6 0 -0.141463063918054 8.00185081124306 11.8467764742672
89 25 7 0 0.818536936081946 8.00185081124306 11.8467764742672
90 25 6 0 1.05853693608195 7.07185081124306 11.8467764742672
91 26 6 0 6.83748503026553 12.9838425111398 4.39152668346651
92 26 7 0 7.79748503026553 12.9838425111398 4.39152668346651
93 26 6 0 8.03748503026553 12.0538425111398 4.39152668346651
94 27 6 0 3.20329541151412 12.961639666874 6.5540786460042
95 27 7 0 4.16329541151412 12.961639666874 6.5540786460042
96 27 6 0 4.40329541151412 12.031639666874 6.5540786460042
97 28 6 0 9.49705533843487 1.84852450312115 7.5341568980366
98 28 7 0 10.4570553384349 1.84852450312115 7.5341568980366
99 28 6 0 10.6970553384349 0.918524503121152 7.5341568980366
100 29 6 0 7.40862513936125 12.6584829685185 5.59357012971304
101 29 7 0 8.36862513936125 12.6584829685185 5.59357012971304
102 29 6 0 8.60862513936125 11.7284829685185 5.59357012971304
103 30 6 0 13.9020510837156 12.5771327285934 10.857104921015
104 30 7 0 14.8620510837156 12.5771327285934 10.857104921015
105 30 6 0 15.1020510837156 11.6471327285934 10.857104921015
106 31 6 0 12.602299051797 7.72743038524874 4.36997063923627
107 31 7 0 13.562299051797 7.72743038524874 4.36997063923627
108 31 6 0 13.802299051797 6.79743038524874 4.36997063923627
109 32 6 0 13.240454443004 3.32106361206621 9.38211129046977
110 32 7 0 14.200454443004 3.32106361206621 9.38211129046977
111 32 6 0 14.440454443004 2.39106361206621 9.38211129046977
112 33 6 0 6.61139868825674 9.23319251550362 13.6316815030295
113 33 7 0 7.57139868825674 9.23319251550362 13.6316815030295
114 33 6 0 7.81139868825674 8.30319251550362 13.6316815030295
115 34 6 0 0.84248647486791 7.40995546145365 12.0772770862095
116 34 7 0 1.80248647486791 7.40995546145365 12.0772770862095
117 34 6 0 2.04248647486791 6.47995546145365 12.0772770862095
118 35 6 0 12.5735297093354 13.8312388297077 7.64542678138241
119 35 7 0 13.5335297093354 13.8312388297077 7.64542678138241
120 35 6 0 13.7735297093354 12.9012388297077 7.64542678138241
121 36 6 0 -0.0592777210101485 4.99654756434262 10.3998595580924
122 36 7 0 0.900722278989851 4.99654756434262 10.3998595580924
123 36 6 0 1.14072227898985 4.06654756434262 10.3998595580924
124 37 6 0 1.19251583048142 11.1615189343598 5.2947480941657
125 37 7 0 2.15251583048143 11.1615189343598 5.2947480941657
126 37 6 0 2.39251583048143 10.2315189343598 5.2947480941657
127 38 6 0 1.8833973461017 10.0161049216427 8.42468684655614
128 38 7 0 2.8433973461017 10.0161049216427 8.42468684655614
129 38 6 0 3.0833973461017 9.08610492164269 8.42468684655614
130 39 6 0 4.91030546531081 9.38477494212799 9.33423345792107
131 39 7 0 5.87030546531081 9.38477494212799 9.33423345792107
132 39 6 0 6.11030546531081 8.45477494212799 9.33423345792107
133 40 6 0 -0.436601246036589 7.882377321776 0.148231544299051
134 40 7 0 0.523398753963411 7.882377321776 0.148231544299051
135 40 6 0 0.763398753963411 6.952377321776 0.148231544299051
136 41 6 0 11.4762796000298 5.08581534651108 10.0302659010049
137 41 7 0 12.4362796000298 5.08581534651108 10.0302659010049
138 41 6 0 12.6762796000298 4.15581534651108 10.0302659010049
139 42 6 0 7.1754049909953 10.9489636907261 4.60196180152707
140 42 7 0 8.1354049909953 10.9489636907261 4.60196180152707
141 42 6 0 8.3754049909953 10.0189636907261 4.60196180152707
142 43 6 0 9.13319511964917 4.24402296234854 10.1688249595463
143 43 7 0 10.0931951196492 4.24402296234854 10.1688249595463
144 43 6 0 10.3331951196492 3.31402296234854 10.1688249595463
145 44 6 0 3.64904500820674 13.0754847223312 3.17304549389519
146 44 7 0 4.60904500820674 13.0754847223312 3.17304549389519
147 44 6 0 4.84904500820674 12.1454847223312 3.17304549389519
148 45 6 0 2.06814398101531 15.1947130895592 6.0595609433949
149 45 7 0 3.02814398101531 15.1947130895592 6.0595609433949
150 45 6 0 3.26814398101531 14.2647130895592 6.0595609433949
151 46 6 0 8.66823398784734 3.56191361480393 7.32632838422433
152 46 7 0 9.62823398784734 3.56191361480393 7.32632838422433
153 46 6 0 9.86823398784734 2.63191361480393 7.32632838422433
154 47 6 0 5.03959848007187 12.8953494438343 10.1892071112525
155 47 7 0 5.99959848007187 12.8953494438343 10.1892071112525
156 47 6 0 6.23959848007187 11.9653494438343 10.1892071112525
157 48 6 0 -0.524083176422864 0.670874040052295 12.433861020254
158 48 7 0 0.435916823577136 0.670874040052295 12.433861020254
159 48 6 0 0.675916823577136 -0.259125959947705 12.433861020254
160 49 6 0 5.58714346887544 14.4558148357924 11.9959514995571
161 49 7 0 6.54714346887544 14.4558148357924 11.9959514995571
162 49 6 0 6.78714346887544 13.5258148357924 11.9959514995571
163 50 6 0 8.93520448749885 12.263382268548 2.83067225595005
164 50 7 0 9.89520448749885 12.263382268548 2.83067225595005
165 50 6 0 10.1352044874989 11.333382268548 2.83067225595005
166 51 6 0 3.08089955055155 10.4491117065214 13.2297425775323
167 51 7 0 4.04089955055155 10.4491117065214 13.2297425775323
168 51 6 0 4.28089955055155 9.51911170652136 13.2297425775323
169 52 6 0 5.21356923549436 5.4679622796271 3.951946136076
170 52 7 0 6.17356923549436 5.4679622796271 3.951946136076
171 52 6 0 6.41356923549436 4.5379622796271 3.951946136076
172 53 6 0 5.18542961843312 15.0968000902236 7.4295639549382
173 53 7 0 6.14542961843312 15.0968000902236 7.4295639549382
174 53 6 0 6.38542961843312 14.1668000902236 7.4295639549382
175 54 6 0 13.7928951233346 9.29161552613601 8.23436514940113
176 54 7 0 14.7528951233346 9.29161552613601 8.23436514940113
177 54 6 0 14.9928951233346 8.36161552613601 8.23436514940113
178 55 6 0 7.67783332776278 7.61979116517119 1.75326748983935
179 55 7 0 8.63783332776278 7.61979116517119 1.75326748983935
180 55 6 0 8.87783332776278 6.68979116517119 1.75326748983935
181 56 6 0 0.752902377136052 1.30498724448495 14.9129156302661
182 56 7 0 1.71290237713605 1.30498724448495 14.9129156302661
183 56 6 0 1.95290237713605 0.374987244484946 14.9129156302661
184 57 6 0 2.1505488005653 13.1444460588414 3.61020921380259
185 57 7 0 3.1105488005653 13.1444460588414 3.61020921380259
186 57 6 0 3.3505488005653 12.2144460588414 3.61020921380259
187 58 6 0 9.47806698895991 0.318806317346171 1.88136628596112
188 58 7 0 10.4380669889599 0.318806317346171 1.88136628596112
189 58 6 0 10.6780669889599 -0.61119368265383 1.88136628596112
190 59 6 0 3.46256199569441 7.03188153956085 4.87130096065812
191 59 7 0 4.42256199569441 7.03188153956085 4.87130096065812
192 59 6 0 4.66256199569441 6.10188153956085 4.87130096065812
193 60 6 0 0.920975555637851 14.6883600558527 2.55990787642077
194 60 7 0 1.88097555563785 14.6883600558527 2.55990787642077
195 60 6 0 2.12097555563785 13.7583600558527 2.55990787642077
196 61 6 0 1.32950791667216 11.8257864999492 12.0354323834181
197 61 7 0 2.28950791667216 11.8257864999492 12.0354323834181
198 61 6 0 2.52950791667216 10.8957864999492 12.0354323834181
199 62 6 0 5.39204078653827 8.08517121750861 10.2377964835614
200 62 7 0 6.35204078653827 8.08517121750861 10.2377964835614
201 62 6 0 6.59204078653827 7.15517121750861 10.2377964835614
202 63 6 0 13.9456445343979 12.9309806592669 4.86580407712609
203 63 7 0 14.9056445343979 12.9309806592669 4.86580407712609
204 63 6 0 15.1456445343979 12.0009806592669 4.86580407712609
205 64 6 0 7.61157076849602 12.585876988424 7.09909393801354
206 64 7 0 8.57157076849602 12.585876988424 7.09909393801354
207 64 6 0 8.81157076849602 11.655876988424 7.09909393801354
208 65 6 0 11.0370511728991 1.31172724807635 0.451139118522406
209 65 7 0 11.9970511728991 1.31172724807635 0.451139118522406
210 65 6 0 12.2370511728991 0.381727248076349 0.451139118522406
211 66 6 0 10.127998514073 8.55774135020562 5.72285061352886
212 66 7 0 11.087998514073 8.55774135020562 5.72285061352886
213 66 6 0 11.327998514073 7.62774135020562 5.72285061352886
214 67 6 0 13.4295997959282 6.77379459649324 6.89344836515374
215 67 7 0 14.3895997959282 6.77379459649324 6.89344836515374
216 67 6 0 14.6295997959282 5.84379459649324 6.89344836515374
217 68 6 0 7.39075202305801 6.22824524803087 6.93909920635633
218 68 7 0 8.35075202305801 6.22824524803087 6.93909920635633
219 68 6 0 8.59075202305801 5.29824524803087 6.93909920635633
220 69 6 0 2.72029734260403 9.86002572271042 4.36807064688765
221 69 7 0 3.68029734260403 9.86002572271042 4.36807064688765
222 69 6 0 3.92029734260403 8.93002572271042 4.36807064688765
223 70 6 0 8.91591030333191 9.59633931558579 8.45366402179934
224 70 7 0 9.87591030333191 9.59633931558579 8.45366402179934
225 70 6 0 10.1159103033319 8.66633931558579 8.45366402179934
226 71 6 0 -0.0750034111831337 11.1424273512699 9.70081456471235
227 71 7 0 0.884996588816866 11.1424273512699 9.70081456471235
228 71 6 0 1.12499658881687 10.2124273512699 9.70081456471235
229 72 6 0 10.1869441503379 5.4497198846098 12.4562506692018
230 72 7 0 11.1469441503379 5.4497198846098 12.4562506692018
231 72 6 0 11.3869441503379 4.5197198846098 12.4562506692018
232 73 6 0 -0.223537364071235 9.09441776614636 2.00789703754708
233 73 7 0 0.736462635928765 9.09441776614636 2.00789703754708
234 73 6 0 0.976462635928765 8.16441776614636 2.00789703754708
235 74 6 0 2.24794753870927 5.59137597255409 4.3309748719912
236 74 7 0 3.20794753870927 5.59137597255409 4.3309748719912
237 74 6 0 3.44794753870927 4.66137597255409 4.3309748719912
238 75 6 0 0.028146950500086 14.286569972001 9.31717506959103
239 75 7 0 0.988146950500086 14.286569972001 9.31717506959103
240 75 6 0 1.22814695050009 13.356569972001 9.31717506959103
241 76 6 0 2.9025006217137 7.79020674684085 12.0901855174452
242 76 7 0 3.8625006217137 7.79020674684085 12.0901855174452
243 76 6 0 4.1025006217137 6.86020674684085 12.0901855174452
244 77 6 0 11.6211743366159 5.85943267954513 6.55405633267947
245 77 7 0 12.581174336616 5.85943267954513 6.55405633267947
246 77 6 0 12.821174336616 4.92943267954513 6.55405633267947
247 78 6 0 11.8396106692683 6.43122011254542 12.219284257153
248 78 7 0 12.7996106692683 6.43122011254542 12.219284257153
249 78 6 0 13.0396106692683 5.50122011254542 12.219284257153
250 79 6 0 9.62817435778677 11.3393690825347 4.83357263845392
251 79 7 0 10.5881743577868 11.3393690825347 4.83357263845392
252 79 6 0 10.8281743577868 10.4093690825347 4.83357263845392
253 80 6 0 3.1139108414948 7.42151621886529 10.937501792796
254 80 7 0 4.0739108414948 7.42151621886529 10.937501792796
255 80 6 0 4.3139108414948 6.49151621886529 10.937501792796
256 81 6 0 5.01131094686687 7.87241736817174 9.03117754147388
257 81 7 0 5.97131094686687 7.87241736817174 9.03117754147388
258 81 6 0 6.21131094686687 6.94241736817174 9.03117754147388
259 82 6 0 11.4890461396147 8.92265575396828 7.34822865226306
260 82 7 0 12.4490461396147 8.92265575396828 7.34822865226306
261 82 6 0 12.6890461396147 7.99265575396828 7.34822865226306
262 83 6 0 8.21110283883288 6.97656919987872 13.2183219585568
263 83 7 0 9.17110283883289 6.97656919987872 13.2183219585568
264 83 6 0 9.41110283883289 6.04656919987872 13.2183219585568
265 84 6 0 10.4843261609506 10.6670977947675 2.75483058183454
266 84 7 0 11.4443261609506 10.6670977947675 2.75483058183454
267 84 6 0 11.6843261609506 9.73709779476747 2.75483058183454
268 85 6 0 8.15819185503758 7.15316843980923 3.99187184404582
269 85 7 0 9.11819185503759 7.15316843980923 3.99187184404582
270 85 6 0 9.35819185503759 6.22316843980923 3.99187184404582
271 86 6 0 10.5627488360927 12.5446785338596 9.856460778974
272 86 7 0 11.5227488360927 12.5446785338596 9.856460778974
273 86 6 0 11.7627488360927 11.6146785338596 9.856460778974
274 87 6 0 11.6793290634826 3.53890068753622 7.20644435612485
275 87 7 0 12.6393290634826 3.53890068753622 7.20644435612485
276 87 6 0 12.8793290634826 2.60890068753622 7.20644435612485
277 88 6 0 11.9471391294803 2.81554301659577 10.6800199567806
278 88 7 0 12.9071391294803 2.81554301659577 10.6800199567806
279 88 6 0 13.1471391294803 1.88554301659577 10.6800199567806
280 89 6 0 10.1879837263562 2.83199261332862 2.80555748962797
281 89 7 0 11.1479837263562 2.83199261332862 2.80555748962797
282 89 6 0 11.3879837263562 1.90199261332862 2.80555748962797
283 90 6 0 8.6263985749986 9.65522628900595 6.67313914163969
284 90 7 0 9.5863985749986 9.65522628900595 6.67313914163969
285 90 6 0 9.8263985749986 8.72522628900595 6.67313914163969
286 91 6 0 14.0762901613209 11.2680821695272 12.3195234441664
287 91 7 0 15.0362901613209 11.2680821695272 12.3195234441664
288 91 6 0 15.2762901613209 10.3380821695272 12.3195234441664
289 92 6 0 0.98263237785548 8.26342705678195 12.8307702485472
290 92 7 0 1.94263237785548 8.26342705678195 12.8307702485472
291 92 6 0 2.18263237785548 7.33342705678195 12.8307702485472
292 93 6 0 9.87252424864098 13.2241328018159 0.100505074951798
293 93 7 0 10.832524248641 13.2241328018159 0.100505074951798
294 93 6 0 11.072524248641 12.2941328018159 0.100505074951798
295 94 6 0 9.70402918101288 5.67849305266514 10.5519316869322
296 94 7 0 10.6640291810129 5.67849305266514 10.5519316869322
297 94 6 0 10.9040291810129 4.74849305266514 10.5519316869322
298 95 6 0 6.44937501216307 13.417622184325 11.9717307086103
299 95 7 0 7.40937501216307 13.417622184325 11.9717307086103
300 95 6 0 7.64937501216307 12.487622184325 11.9717307086103
301 96 6 0 9.05918074582703 8.51188867975958 11.9868514279369
302 96 7 0 10.019180745827 8.51188867975958 11.9868514279369
303 96 6 0 10.259180745827 7.58188867975958 11.9868514279369
304 97 6 0 9.71017243850045 2.63760270009749 4.88516548415646
305 97 7 0 10.6701724385004 2.63760270009749 4.88516548415646
306 97 6 0 10.9101724385004 1.70760270009749 4.88516548415646
307 98 6 0 2.36450295589864 5.26136828394607 13.6247927171644
308 98 7 0 3.32450295589864 5.26136828394607 13.6247927171644
309 98 6 0 3.56450295589864 4.33136828394607 13.6247927171644
310 99 6 0 1.52913517478853 14.6237374159414 7.74816606310196
311 99 7 0 2.48913517478853 14.6237374159414 7.74816606310196
312 99 6 0 2.72913517478854 13.6937374159414 7.74816606310196
313 100 6 0 -0.079422919806093 13.8824439565092 8.02417525090277
314 100 7 0 0.880577080193907 13.8824439565092 8.02417525090277
315 100 6 0 1.12057708019391 12.9524439565092 8.02417525090277
316 101 6 0 0.81986559715122 9.76096760173328 14.5750405511353
317 101 7 0 1.77986559715122 9.76096760173328 14.5750405511353
318 101 6 0 2.01986559715122 8.83096760173328 14.5750405511353
319 102 6 0 7.92798543741927 1.7594862454012 1.25255504390225
320 102 7 0 8.88798543741927 1.7594862454012 1.25255504390225
321 102 6 0 9.12798543741927 0.829486245401204 1.25255504390225
322 103 6 0 13.0518895054422 9.40250022959895 1.81366791715845
323 103 7 0 14.0118895054422 9.40250022959895 1.81366791715845
324 103 6 0 14.2518895054422 8.47250022959896 1.81366791715845
325 104 6 0 4.19660533240065 1.6508945617266 0.272581122117117
326 104 7 0 5.15660533240065 1.6508945617266 0.272581122117117
327 104 6 0 5.39660533240065 0.7208945617266 0.272581122117117
328 105 6 0 3.37838707535528 10.9442939229216 2.8022849780973
329 105 7 0 4.33838707535528 10.9442939229216 2.8022849780973
330 105 6 0 4.57838707535528 10.0142939229216 2.8022849780973
331 106 6 0 9.38346467373893 8.90464042121545 12.9425839672331
332 106 7 0 10.3434646737389 8.90464042121545 12.9425839672331
333 106 6 0 10.5834646737389 7.97464042121544 12.9425839672331
334 107 6 0 2.56043912770227 7.67817147000693 13.8092429749668
335 107 7 0 3.52043912770227 7.67817147000693 13.8092429749668
336 107 6 0 3.76043912770227 6.74817147000693 13.8092429749668
337 108 6 0 12.9383390529267 3.6539107122831 5.74935620301403
338 108 7 0 13.8983390529267 3.6539107122831 5.74935620301403
339 108 6 0 14.1383390529267 2.7239107122831 5.74935620301403
340 109 6 0 4.41001785962842 14.4218616354652 14.2174619995058
341 109 7 0 5.37001785962842 14.4218616354652 14.2174619995058
342 109 6 0 5.61001785962842 13.4918616354652 14.2174619995058
343 110 6 0 2.7058498926647 1.53195181786083 5.17701079370454
344 110 7 0 3.6658498926647 1.53195181786083 5.17701079370454
345 110 6 0 3.9058498926647 0.601951817860827 5.17701079370454
346 111 6 0 -0.221607451820746 13.335576696964 9.32187592727132
347 111 7 0 0.738392548179254 13.335576696964 9.32187592727132
348 111 6 0 0.978392548179254 12.405576696964 9.32187592727132
349 112 6 0 10.2456205563806 5.98961719003506 2.99416834954172
350 112 7 0 11.2056205563806 5.98961719003506 2.99416834954172
351 112 6 0 11.4456205563806 5.05961719003506 2.99416834954172
352 113 6 0 10.3512470300496 0.675601681405678 2.59906739462167
353 113 7 0 11.3112470300496 0.675601681405678 2.59906739462167
354 113 6 0 11.5512470300496 -0.254398318594322 2.59906739462167
355 114 6 0 0.867377014802769 13.7915097856335 0.293287311214954
356 114 7 0 1.82737701480277 13.7915097856335 0.293287311214954
357 114 6 0 2.06737701480277 12.8615097856335 0.293287311214954
358 115 6 0 -0.688188309576362 14.7543189178128 14.4288832694292
359 115 7 0 0.271811690423638 14.7543189178128 14.4288832694292
360 115 6 0 0.511811690423638 13.8243189178128 14.4288832694292
361 116 6 0 3.36762446721084 10.9298009557556 5.95757602946833
362 116 7 0 4.32762446721084 10.9298009557556 5.95757602946833
363 116 6 0 4.56762446721084 9.99980095575564 5.95757602946833
364 117 6 0 7.7606621808093 1.2882217128668 0.0407647155225277
365 117 7 0 8.7206621808093 1.2882217128668 0.0407647155225277
366 117 6 0 8.9606621808093 0.358221712866798 0.0407647155225277
367 118 6 0 0.75323677316308 13.0004317014851 12.4031103076413
368 118 7 0 1.71323677316308 13.0004317014851 12.4031103076413
369 118 6 0 1.95323677316308 12.0704317014851 12.4031103076413
370 119 6 0 9.34466532242484 0.99088979809545 14.5659946615342
371 119 7 0 10.3046653224248 0.99088979809545 14.5659946615342
372 119 6 0 10.5446653224248 0.0608897980954498 14.5659946615342
373 120 6 0 7.8674666122254 2.39269163384102 14.805405526422
374 120 7 0 8.8274666122254 2.39269163384102 14.805405526422
375 120 6 0 9.0674666122254 1.46269163384102 14.805405526422
376 121 6 0 12.4835076746251 12.6974412162695 2.53036999027245
377 121 7 0 13.4435076746251 12.6974412162695 2.53036999027245
378 121 6 0 13.6835076746251 11.7674412162695 2.53036999027245
379 122 6 0 6.470532151144 1.75285767572001 13.8011399586685
380 122 7 0 7.430532151144 1.75285767572001 13.8011399586685
381 122 6 0 7.670532151144 0.822857675720006 13.8011399586685
382 123 6 0 11.8762870696094 8.25603390386328 9.52053146087565
383 123 7 0 12.8362870696094 8.25603390386328 9.52053146087565
384 123 6 0 13.0762870696094 7.32603390386328 9.52053146087565
385 124 6 0 11.3567497457564 4.95783366653137 3.91692686942406
386 124 7 0 12.3167497457564 4.95783366653137 3.91692686942406
387 124 6 0 12.5567497457564 4.02783366653137 3.91692686942406
388 125 6 0 6.77158484512009 10.9399990951084 7.51586765865795
389 125 7 0 7.73158484512009 10.9399990951084 7.51586765865795
390 125 6 0 7.97158484512009 10.0099990951084 7.51586765865795
391 126 6 0 7.49591300424188 6.97463597328402 5.17595084616914
392 126 7 0 8.45591300424188 6.97463597328402 5.17595084616914
393 126 6 0 8.69591300424188 6.04463597328402 5.17595084616914
394 127 6 0 3.00745678760111 14.1229078154452 13.5258736729156
395 127 7 0 3.96745678760111 14.1229078154452 13.5258736729156
396 127 6 0 4.20745678760111 13.1929078154452 13.5258736729156
397 128 6 0 8.13630547301844 9.31353871518746 1.40845232759602
398 128 7 0 9.09630547301844 9.31353871518746 1.40845232759602
399 128 6 0 9.33630547301844 8.38353871518746 1.40845232759602
400 129 6 0 13.7482951807044 6.7553881571535 0.784618123434484
401 129 7 0 14.7082951807044 6.7553881571535 0.784618123434484
402 129 6 0 14.9482951807044 5.8253881571535 0.784618123434484
403 130 6 0 8.14518393061124 14.8404239704274 11.7746429750696
404 130 7 0 9.10518393061124 14.8404239704274 11.7746429750696
405 130 6 0 9.34518393061124 13.9104239704274 11.7746429750696
406 131 6 0 13.2187910545338 7.63208195142448 4.64643295970745
407 131 7 0 14.1787910545338 7.63208195142448 4.64643295970745
408 131 6 0 14.4187910545338 6.70208195142448 4.64643295970745
409 132 6 0 14.2488758177217 1.02819901117124 1.72404098091647
410 132 7 0 15.2088758177217 1.02819901117124 1.72404098091647
411 132 6 0 15.4488758177217 0.0981990111712366 1.72404098091647
412 133 6 0 3.46032985995524 5.23118177819066 9.540972544346
413 133 7 0 4.42032985995524 5.23118177819066 9.540972544346
414 133 6 0 4.66032985995524 4.30118177819066 9.540972544346
415 134 6 0 -0.592387095820159 5.5367372130882 3.79460995201953
416 134 7 0 0.367612904179841 5.5367372130882 3.79460995201953
417 134 6 0 0.607612904179841 4.6067372130882 3.79460995201953
418 135 6 0 9.5283380434569 2.7266119878646 1.44572104560211
419 135 7 0 10.4883380434569 2.7266119878646 1.44572104560211
420 135 6 0 10.7283380434569 1.7966119878646 1.44572104560211
421 136 6 0 6.44118680080399 3.60339823802002 10.3936671861447
422 136 7 0 7.40118680080399 3.60339823802002 10.3936671861447
423 136 6 0 7.64118680080399 2.67339823802002 10.3936671861447
424 137 6 0 5.65900357483886 12.2993614063039 11.0745488118846
425 137 7 0 6.61900357483886 12.2993614063039 11.0745488118846
426 137 6 0 6.85900357483886 11.3693614063039 11.0745488118846
427 138 6 0 5.17539272594266 13.8858266411722 10.9678207151592
428 138 7 0 6.13539272594266 13.8858266411722 10.9678207151592
429 138 6 0 6.37539272594266 12.9558266411722 10.9678207151592
430 139 6 0 13.457948377328 8.67914009647444 10.496299888473
431 139 7 0 14.417948377328 8.67914009647444 10.496299888473
432 139 6 0 14.657948377328 7.74914009647444 10.496299888473
433 140 6 0 0.443037547376007 14.9105893044639 3.68803697638214
434 140 7 0 1.40303754737601 14.9105893044639 3.68803697638214
435 140 6 0 1.64303754737601 13.9805893044639 3.68803697638214
436 141 6 0 12.5896075931098 3.45087366103195 6.11938475514762
437 141 7 0 13.5496075931098 3.45087366103195 6.11938475514762
438 141 6 0 13.7896075931098 2.52087366103195 6.11938475514762
439 142 6 0 6.69129120346159 10.3250585337542 14.9957275134511
440 142 7 0 7.65129120346159 10.3250585337542 14.9957275134511
441 142 6 0 7.89129120346159 9.3950585337542 14.9957275134511
442 143 6 0 10.9055653859116 7.50719540444203 6.02784570073709
443 143 7 0 11.8655653859116 7.50719540444203 6.02784570073709
444 143 6 0 12.1055653859116 6.57719540444203 6.02784570073709
445 144 6 0 3.56162879543379 0.874674857305363 10.7624460174702
446 144 7 0 4.52162879543379 0.874674857305363 10.7624460174702
447 144 6 0 4.76162879543379 -0.0553251426946372 10.7624460174702
448 145 6 0 0.0710293608438224 3.54993977275677 7.56096775992773
449 145 7 0 1.03102936084382 3.54993977275677 7.56096775992773
450 145 6 0 1.27102936084382 2.61993977275677 7.56096775992773
451 146 6 0 13.7477578727715 6.95768541464582 14.4268642016686
452 146 7 0 14.7077578727715 6.95768541464582 14.4268642016686
453 146 6 0 14.9477578727715 6.02768541464582 14.4268642016686
454 147 6 0 -0.650820259032771 4.2959674742911 3.95498752011918
455 147 7 0 0.309179740967229 4.2959674742911 3.95498752011918
456 147 6 0 0.549179740967229 3.3659674742911 3.95498752011918
457 148 6 0 13.1149236245267 0.630582311833277 8.13614789047278
458 148 7 0 14.0749236245267 0.630582311833277 8.13614789047278
459 148 6 0 14.3149236245267 -0.299417688166723 8.13614789047278
460 149 6 0 2.12561687847599 12.7881294551212 10.3766450809781
461 149 7 0 3.08561687847599 12.7881294551212 10.3766450809781
462 149 6 0 3.32561687847599 11.8581294551212 10.3766450809781
463 150 6 0 3.8880545859877 11.7866721811611 14.7893404006027
464 150 7 0 4.8480545859877 11.7866721811611 14.7893404006027
465 150 6 0 5.0880545859877 10.8566721811611 14.7893404006027
466 151 6 0 12.0056318985019 3.6918248368334 4.64258344145492
467 151 7 0 12.9656318985019 3.6918248368334 4.64258344145492
468 151 6 0 13.2056318985019 2.7618248368334 4.64258344145492
469 152 6 0 0.476755771525204 2.8526694797352 8.22928756708279
470 152 7 0 1.4367557715252 2.8526694797352 8.22928756708279
471 152 6 0 1.6767557715252 1.9226694797352 8.22928756708279
472 153 6 0 13.0042101982702 11.250215542214 6.00321787409484
473 153 7 0 13.9642101982702 11.250215542214 6.00321787409484
474 153 6 0 14.2042101982702 10.320215542214 6.00321787409484
475 154 6 0 4.57615418286994 1.98449846398085 6.23753795865923