LAMMPS (29 Sep 2021 - Update 1)
# Test LAMMPS input file for single DeFDe

# Initialize simulation

clear

units real
atom_style full
boundary p p p
dielectric 1
special_bonds dreiding

bond_style harmonic
angle_style harmonic
dihedral_style harmonic
improper_style umbrella
pair_style hybrid/overlay hbond/dreiding/lj 4 9.0 11.0 90 lj/cut 8.50000

# Read data file
read_data frag5.dat
Reading data file ...
  triclinic box = (0.0000000 0.0000000 0.0000000) to (15.000000 15.000000 15.000000) with tilt (0.0000000 0.0000000 0.0000000)
  2 by 4 by 4 MPI processor grid
  reading atoms ...
  1518 atoms
  scanning bonds ...
  4 = max bonds/atom
  scanning angles ...
  6 = max angles/atom
  scanning dihedrals ...
  18 = max dihedrals/atom
  scanning impropers ...
  1 = max impropers/atom
  reading bonds ...
  1017 bonds
  reading angles ...
  530 angles
  reading dihedrals ...
  37 dihedrals
  reading impropers ...
  2 impropers
Finding 1-2 1-3 1-4 neighbors ...
  special bond factors lj:    0        0        1       
  special bond factors coul:  0        0        1       
     4 = max # of 1-2 neighbors
     6 = max # of 1-3 neighbors
    10 = max # of special neighbors
  special bonds CPU = 0.002 seconds
  read_data CPU = 0.017 seconds

# Dreiding potential information

bond_coeff 1 350 1.53
bond_coeff 2 350 1.09
bond_coeff 3 700 1.275
bond_coeff 4 350 1.375
bond_coeff 5 350 0.935
bond_coeff 6 700 1.22
bond_coeff 7 350 0.99
bond_coeff 8 350 0.98

angle_coeff 1 50 109.471
angle_coeff 2 50 120
angle_coeff 3 50 120
angle_coeff 4 50 104.51

dihedral_coeff 1 0.111111111111111 -1 3
dihedral_coeff 2 5.625 -1 2
dihedral_coeff 3 0.0833333333333333 -1 6

improper_coeff 1 40 0

pair_coeff 1 1 lj/cut 0.0951 3.8983
pair_coeff 1 2 lj/cut 0.0857947550844456 3.77835472527395
pair_coeff 1 3 lj/cut 0.0951 3.8983
pair_coeff 1 4 lj/cut 0.0953995283007206 3.64309650983885
pair_coeff 1 5 lj/cut 0.0380199947396104 3.52917391183829
pair_coeff 1 6 lj/cut 0.00308382878902186 3.52806914614779
pair_coeff 1 7 lj/cut 0.0953995283007206 3.64309650983885
pair_coeff 2 2 lj/cut 0.0774 3.6621
pair_coeff 2 3 lj/cut 0.0857947550844456 3.77835472527395
pair_coeff 2 4 lj/cut 0.0860649754545948 3.53100349192691
pair_coeff 2 5 lj/cut 0.0342998542270955 3.42058613398347
pair_coeff 2 6 lj/cut 0.00278208554864871 3.41951536039831
pair_coeff 2 7 lj/cut 0.0860649754545948 3.53100349192691
pair_coeff 3 3 lj/cut 0.0951 3.8983
pair_coeff 3 4 lj/cut 0.0953995283007206 3.64309650983885
pair_coeff 3 5 lj/cut 0.0380199947396104 3.52917391183829
pair_coeff 3 6 lj/cut 0.00308382878902186 3.52806914614779
pair_coeff 3 7 lj/cut 0.0953995283007206 3.64309650983885
pair_coeff 4 4 lj/cut 0.0957 3.4046
pair_coeff 4 5 lj/cut 0.0381397430510485 3.29813538230316
pair_coeff 4 6 lj/cut 0.0030935416596516 3.29710294046152
pair_coeff 4 7 lj/cut 0.0957 3.4046
pair_coeff 5 5 lj/cut 0.0152 3.195
pair_coeff 5 6 lj/cut 0.0012328828005938 3.19399984345648
pair_coeff 5 7 lj/cut 0.0381397430510485 3.29813538230316
pair_coeff 6 6 lj/cut 1e-04 3.193
pair_coeff 6 7 lj/cut 0.0030935416596516 3.29710294046152
pair_coeff 7 7 lj/cut 0.0957 3.4046
pair_coeff 2 2 hbond/dreiding/lj 6 j 9.50 2.75 4 9.0 11.0 90
pair_coeff 2 4 hbond/dreiding/lj 6 i 9.50 2.75 4 9.0 11.0 90
pair_coeff 2 7 hbond/dreiding/lj 6 i 9.50 2.75 4 9.0 11.0 90
pair_coeff 2 7 hbond/dreiding/lj 6 j 9.50 2.75 4 9.0 11.0 90
pair_coeff 4 7 hbond/dreiding/lj 6 j 9.50 2.75 4 9.0 11.0 90
pair_coeff 7 7 hbond/dreiding/lj 6 j 9.50 2.75 4 9.0 11.0 90

neighbor 2 bin
neigh_modify every 2 one 10000

# Gemoetric relaxation
fix 1 all box/relax iso 1.0 vmax 0.001
minimize 1.0e-4 1.0e-6 10000 10000
WARNING: Using 'neigh_modify every 1 delay 0 check yes' setting during minimization (../min.cpp:188)
Neighbor list info ...
  update every 1 steps, delay 0 steps, check yes
  max neighbors/atom: 10000, page size: 100000
  master list distance cutoff = 13
  ghost atom cutoff = 13
  binsize = 6.5, bins = 3 3 3
  3 neighbor lists, perpetual/occasional/extra = 3 0 0
  (1) pair hbond/dreiding/lj, perpetual, skip from (3)
      attributes: full, newton on
      pair build: skip
      stencil: none
      bin: none
  (2) pair lj/cut, perpetual, half/full from (3)
      attributes: half, newton on
      pair build: halffull/newton
      stencil: none
      bin: none
  (3) neighbor class addition, perpetual
      attributes: full, newton on
      pair build: full/bin
      stencil: full/bin/3d
      bin: standard
Per MPI rank memory allocation (min/avg/max) = 17.28 | 17.62 | 18.13 Mbytes
Step Temp E_pair E_mol TotEng Press Volume 
       0            0 4.7758132e+16    216.31524 4.7758132e+16 3.8811253e+18         3375 
    5343            0   -1015.2714    38.350505   -976.92086    103.46066    36341.856 
Loop time of 5.02581 on 32 procs for 5343 steps with 1518 atoms

100.0% CPU use with 32 MPI tasks x no OpenMP threads

Minimization stats:
  Stopping criterion = energy tolerance
  Energy initial, next-to-last, final = 
    4.77581323179083e+16  -976.363520524608   -976.44007056343
  Force two-norm initial, final = 6.2151996e+18 103.83685
  Force max component initial, final = 4.1488287e+18 73.776314
  Final line search alpha, max atom move = 1.4163953e-05 0.0010449642
  Iterations, force evaluations = 5343 5344

MPI task timing breakdown:
Section |  min time  |  avg time  |  max time  |%varavg| %total
---------------------------------------------------------------
Pair    | 1.0378     | 2.6119     | 4.2619     |  44.0 | 51.97
Bond    | 0.0055177  | 0.01148    | 0.030508   |   3.9 |  0.23
Neigh   | 0.10067    | 0.10107    | 0.10143    |   0.1 |  2.01
Comm    | 0.29935    | 1.9477     | 3.5225     |  51.0 | 38.75
Output  | 0          | 0          | 0          |   0.0 |  0.00
Modify  | 0          | 0          | 0          |   0.0 |  0.00
Other   |            | 0.3536     |            |       |  7.04

Nlocal:        47.4375 ave          76 max          25 min
Histogram: 1 2 6 7 3 8 1 2 1 1
Nghost:        2010.06 ave        2061 max        1952 min
Histogram: 3 2 4 6 1 2 1 3 6 4
Neighs:        5104.91 ave        8851 max        2485 min
Histogram: 2 1 8 7 4 5 0 4 0 1

Total # of neighbors = 163357
Ave neighs/atom = 107.61331
Ave special neighs/atom = 2.0382082
Neighbor list builds = 91
Dangerous builds = 0

# MD simulation
velocity all create 300.0 12345 rot yes dist gaussian
timestep 1.0
fix 2 all nvt temp 300.0 300.0 1

# Compute interaction energy
group WAT molecule <> 2 501
1500 atoms in group WAT
group MOL molecule 1
18 atoms in group MOL

compute w WAT group/group MOL pair yes
fix 3 all ave/time 10 5 100 c_w file outa

# Outputs
thermo 100 # Output thermodynamic data every nth step
#dump mf1 all xyz 10000 mol_*.xyz

# Run
run 1000000
Neighbor list info ...
  update every 2 steps, delay 10 steps, check yes
  max neighbors/atom: 10000, page size: 100000
  master list distance cutoff = 13
  ghost atom cutoff = 13
  binsize = 6.5, bins = 6 6 6
  4 neighbor lists, perpetual/occasional/extra = 3 1 0
  (1) pair hbond/dreiding/lj, perpetual, skip from (4)
      attributes: full, newton on
      pair build: skip
      stencil: none
      bin: none
  (2) pair lj/cut, perpetual, half/full from (4)
      attributes: half, newton on
      pair build: halffull/newton
      stencil: none
      bin: none
  (3) compute group/group, occasional, copy from (2)
      attributes: half, newton on
      pair build: copy
      stencil: none
      bin: none
  (4) neighbor class addition, perpetual
      attributes: full, newton on
      pair build: full/bin
      stencil: full/bin/3d
      bin: standard
Per MPI rank memory allocation (min/avg/max) = 16.13 | 16.19 | 16.60 Mbytes
Step Temp E_pair E_mol TotEng Press Volume 
    5343          300   -1015.2714    38.350505     379.6458    1809.8058    36341.856 
    5400    295.73949   -1047.3071     234.7814    524.77542    1655.7567    36341.856 
    5500    304.59013   -1106.1366    209.12023    480.30633    925.35548    36341.856 
    5600    302.16599   -1134.9158    172.77898    404.22425    1338.7903    36341.856 
    5700     297.2696   -1118.0575     187.7357    413.89834    664.62247    36341.856 
    5800     306.4562   -1131.4213    190.85832    445.19793     415.8133    36341.856 
    5900     295.9088   -1115.4453     195.5003    418.12174    697.80545    36341.856 
    6000    296.63565   -1142.3682    198.54414    397.52937    161.93478    36341.856 
    6100    301.49945    -1151.682    194.34921    406.01418    464.67418    36341.856 
    6200    308.55577   -1094.8079    208.04576    508.49275    473.55396    36341.856 
    6300      305.848   -1163.5787    204.02133    423.45328     216.2968    36341.856 
    6400    306.43425    -1135.028    198.56068    449.19433    684.37662    36341.856 
    6500     305.1505   -1122.7342    201.44558    458.56805    598.40739    36341.856 
    6600    312.87989   -1125.4405    214.30862    503.67622    722.16106    36341.856 
    6700    300.27886    -1128.481    213.05746    442.40412    233.36663    36341.856 
    6800     308.0102   -1180.7537    214.81005    426.84425    423.74438    36341.856 
    6900    306.86154   -1120.6886    207.80798    474.71312    312.22509    36341.856 
    7000    297.64351   -1149.6779    219.96606    416.19903     388.1723    36341.856 
    7100    298.40443    -1141.599    209.29997    417.05263    583.86916    36341.856 
    7200     297.7509   -1171.0809    218.58197     393.8976    235.29085    36341.856 
    7300    302.34683   -1157.1383     220.1993    430.23977    377.83868    36341.856 
    7400     295.0455   -1119.2742    207.25594    422.14467     440.6009    36341.856 
    7500    303.31902   -1154.4465    214.34612    431.47453     482.0987    36341.856 
    7600    296.37141   -1118.1403    222.99989    445.01813    158.36283    36341.856 
    7700    283.75992    -1142.906    211.63588    351.86064    248.04054    36341.856 
    7800    293.56189   -1193.4339    214.87177    348.89214    248.30442    36341.856 
    7900    298.44235   -1169.7766    218.82129    398.56777    368.70249    36341.856 
    8000    310.45772   -1105.2443      216.306    514.91696    475.05066    36341.856 
    8100    300.38146    -1118.459    221.84344    461.67599    472.28112    36341.856 
    8200    303.11658   -1147.8989    227.52575    450.28633    649.00298    36341.856 
    8300     300.2393   -1121.9026       227.76    463.50617    452.08125    36341.856 
    8400    290.07455   -1124.0082    216.75686    404.43357    364.52928    36341.856 
    8500    295.49514   -1123.8104    236.71124    449.09701   -47.507186    36341.856 
    8600    299.70314    -1116.349    230.08523    468.96056    303.66834    36341.856 
    8700     296.7481   -1116.5545    239.91859      465.226    553.74168    36341.856 
    8800    309.70244   -1128.8005    210.08348    481.72301    441.50454    36341.856 
    8900    294.68879   -1162.2827     222.2557    392.52294    676.17883    36341.856 
    9000    305.14896   -1130.2862    247.26419    496.82763    817.35925    36341.856 
    9100    295.71821   -1163.1537    231.53431    405.58546    349.36981    36341.856 
    9200    295.78753   -1172.2121    239.68772    404.99398    386.68645    36341.856 
    9300    303.90224   -1137.0426    237.60916    474.77867    153.11029    36341.856 
    9400    292.09626   -1103.9483    242.23756    459.11612   -184.07513    36341.856 
    9500    294.82001   -1151.1287    237.47636    419.49093    190.78798    36341.856 
    9600    306.32468   -1154.2069    239.23294    470.19224    361.70607    36341.856 
    9700    296.71414   -1189.8819    233.26156      385.088    274.94827    36341.856 
    9800    312.28251   -1137.1652    244.79295    519.73453    127.78324    36341.856 
    9900    307.56582   -1151.7651    248.33103    487.34439    377.49511    36341.856 
   10000    299.98313   -1166.0345     250.8726     441.3285    9.2455065    36341.856 
   10100    289.34078   -1167.0429    250.77668     392.1006    301.03244    36341.856 
   10200    304.18453   -1124.0551    247.70197    499.13552     590.9602    36341.856 
   10300    306.78575   -1120.7778    255.53336    522.00662    355.94958    36341.856 
   10400    300.78241   -1139.2367    250.89324    471.76116    109.96212    36341.856 
   10500    292.60072   -1097.4134    257.41323    483.10774   -203.52706    36341.856 
   10600    304.49693   -1122.4944    255.87127    510.27811    60.149798    36341.856 
   10700    298.37202    -1147.261    267.76157     469.7057    337.32347    36341.856 
   10800    289.99025   -1123.8663     261.9509    449.38827    712.96335    36341.856 
   10900    294.44934   -1104.8956    262.96301    489.53464    448.97771    36341.856 
   11000    300.68617    -1142.932    252.42476    469.16223    27.553996    36341.856 
   11100    301.31414   -1148.0346    244.66083    459.13533    364.99538    36341.856 
   11200     303.7749   -1156.5657    258.07704     475.1477    300.80412    36341.856 
   11300    302.03746    -1119.238    260.86001    507.40183    367.85897    36341.856 
   11400    308.07242   -1192.2724    261.45555    462.25237    55.852143    36341.856 
   11500    300.82697   -1133.9411    254.53416    480.89915    454.11498    36341.856 
   11600    294.17939   -1142.6165    264.74116    452.37119     211.6289    36341.856 
   11700    295.58219   -1135.9762    263.83623    464.44986   -31.801113    36341.856 
   11800    307.13042   -1174.8585    259.57925    473.53037   -32.273441    36341.856 
   11900    304.84703   -1148.0165     273.5281    503.99593   -116.67429    36341.856 
   12000    308.47477    -1155.724    279.74575    518.91042   -197.58831    36341.856 
   12100    303.01863   -1155.8028     285.7666    500.18031    73.376454    36341.856 
   12200    311.38704   -1150.7261    256.12183    513.45331    126.13988    36341.856 
   12300    308.94092   -1176.9664     283.8872    503.91725   -183.08652    36341.856 
   12400    306.37192   -1151.7365    266.69824    500.34153    516.01595    36341.856 
   12500    295.66859   -1199.4422    275.67199     413.2103      85.0988    36341.856 
   12600    296.59165   -1176.5378    292.34823    456.96489    638.23539    36341.856 
   12700    289.87416   -1242.7455    271.58731    339.62054    243.25148    36341.856 
   12800    300.98807   -1165.9722    283.10011    478.16252      578.942    36341.856 
   12900    296.12611   -1199.7604    281.84595     421.1349    553.68037    36341.856 
   13000    300.79668   -1166.1497    284.10864    478.12804    378.44722    36341.856 
   13100    298.07227   -1201.4874    280.62898    426.99121    482.23638    36341.856 
   13200    291.24458    -1137.946    293.86312     472.8927    547.64506    36341.856 
   13300      299.201   -1183.9782     294.1162    463.09172    327.26001    36341.856 
   13400    303.52099   -1106.8203    287.11783    552.78573    489.46509    36341.856 
   13500    295.86432   -1149.9811    298.82135    486.70579    403.39463    36341.856 
   13600    292.93181   -1145.1333    305.85041    485.32219    395.20339    36341.856 
   13700    295.99487   -1167.3261    292.76573    463.89555    12.551864    36341.856 
   13800    289.99502   -1131.5193    286.30738    466.11328    346.78532    36341.856 
   13900      305.675    -1136.305    289.31962    535.24298   -22.704089    36341.856 
   14000    301.26674   -1113.5483    288.39635    537.14275    695.38867    36341.856 
   14100    295.56071   -1131.3476    293.75637    498.90142    6.8205127    36341.856 
   14200     294.5594   -1163.0197    315.25616    484.20133    369.22615    36341.856 
   14300    303.91197   -1161.5427    287.72348    500.43695    482.22014    36341.856 
   14400    299.24017    -1171.677     289.4665    470.92025    103.16423    36341.856 
   14500    292.70591   -1233.3035    300.47128    390.75138    -347.3041    36341.856 
   14600    292.68504   -1152.5135    296.83775    467.81349    200.32567    36341.856 
   14700    302.84926   -1159.4491    307.35278    517.35431    341.60007    36341.856 
   14800    308.70409   -1153.9058    295.76706    537.78682     171.9397    36341.856 
   14900    302.61446   -1152.6378    300.07699    515.82812   -152.34483    36341.856 
   15000     301.5503   -1175.6328    305.12847    493.07262   -120.61665    36341.856 
   15100    305.98893   -1178.8825    291.01263    495.77801    127.13753    36341.856 
   15200    300.18675    -1173.815    314.43601    498.03212    187.76292    36341.856 
   15300    307.21617   -1196.7014    314.93744    507.43345    221.50431    36341.856 
   15400    306.22594   -1163.7595    303.78345    524.74358    393.00845    36341.856 
   15500    299.10855   -1233.4556     294.4382    413.51816    552.40167    36341.856 
   15600    304.96763   -1241.4094    297.38985    435.01017      241.957    36341.856 
   15700    293.47531    -1226.145    322.04536    422.96314    325.29567    36341.856 
   15800    306.14812   -1226.7045    300.57162    458.23494    523.05432    36341.856 
   15900    301.22893   -1191.6157    317.20041    487.70849    782.92389    36341.856 
   16000    303.16539    -1191.474    324.87339    504.27963    385.19907    36341.856 
   16100    307.17903     -1207.44    291.91073    473.50018    117.44367    36341.856 
   16200    303.52285   -1187.2942    305.38081    490.58317    266.50022    36341.856 
   16300     307.2601   -1209.5679    301.52171    481.34982    242.27578    36341.856 
   16400    300.65861   -1195.0311    310.76786    475.28162    63.744455    36341.856 
   16500    294.19006   -1240.5611    324.92752     414.6612   -303.70332    36341.856 
   16600    289.63057   -1222.3183    321.51893    408.87789    46.717368    36341.856 
   16700    309.24287   -1249.8619    316.34699      464.847   -188.96697    36341.856 
   16800    296.87091   -1232.8265     314.2834    423.87417    545.83906    36341.856 
   16900    288.26127   -1228.0276    324.06259    399.52039   -0.8495535    36341.856 
   17000    293.20846   -1226.7649    317.64351    416.73465    115.10235    36341.856 
   17100    298.82945   -1239.7763    317.57315    429.07042   -82.869329    36341.856 
   17200    296.46652   -1212.5613    309.93654    437.96388    204.53289    36341.856 
   17300    294.73682   -1230.6937    311.96896    414.04247    229.99507    36341.856 
   17400    294.15694   -1198.7867    322.54232    453.90061    330.35247    36341.856 
   17500    291.97661   -1204.9674    322.93947    438.25787     234.3876    36341.856 
   17600    302.53597   -1255.1474    323.45813    436.34475    305.32015    36341.856 
   17700    299.40191   -1236.2272    330.16707    447.80205   -36.508303    36341.856 
   17800    298.54726   -1244.8654     313.9366    419.06876    334.75866    36341.856 
   17900    307.28503   -1241.4808    310.12856     458.1565    177.65131    36341.856 
   18000    298.96945   -1250.6837    333.62955    434.85242    398.39377    36341.856 
   18100    296.14258   -1230.0094    335.13473    444.24917    49.691396    36341.856 
   18200    297.87254   -1214.3542    307.68461    440.27688   -175.40053    36341.856 
   18300    294.70632   -1201.2157    351.80849    483.22198   -368.28992    36341.856 
   18400     298.2454    -1189.045    305.50547    465.09299     60.07817    36341.856 
   18500    292.51296   -1175.2403    333.09656    480.56732   -8.6224348    36341.856 
   18600    294.29928   -1170.3229    344.31745     504.7832    49.733658    36341.856 
   18700    287.14904     -1159.74    347.48983    486.20591   -202.88817    36341.856 
   18800    306.51465   -1212.9132    349.23898    522.35101    388.02307    36341.856 
   18900     297.1049   -1202.2026    315.84502    457.11772     239.3709    36341.856 
   19000    298.35878   -1195.3677    352.72974     506.5073   -170.83167    36341.856 
   19100    295.70713   -1206.3252    328.68626    459.51586    219.97994    36341.856 
   19200    311.05669   -1188.7493    329.55262     547.3671    355.32408    36341.856 
   19300    306.96366   -1197.2423    352.99222    543.80546    810.27521    36341.856 
   19400    301.67554   -1213.6118    337.96095    488.49242    1001.7521    36341.856 
   19500    292.09221    -1195.771    339.95786    464.99535    570.89538    36341.856 
   19600    300.01647   -1179.8932    345.05246    521.80036    211.66963    36341.856 
   19700    298.99753   -1193.9054    351.19818    509.32643    45.592897    36341.856 
   19800     292.1342   -1150.9198    350.27632    520.35489    131.14228    36341.856 
   19900    301.90572   -1208.3704    341.42699    498.24067    115.85169    36341.856 
   20000     299.9424   -1178.2814    346.21642    524.24124    525.00661    36341.856 
   20100    297.66655    -1193.239    348.55432    501.33038    351.28658    36341.856 
   20200    317.18313   -1176.9204    366.05977    623.40621    138.47611    36341.856 
   20300    297.87895   -1202.6783    338.18257    482.47982    486.30189    36341.856 
   20400    308.16107   -1210.6904    326.07075    508.85042    368.81891    36341.856 
   20500    305.80067   -1247.1111     349.4906    485.17616    212.45549    36341.856 
   20600    303.89732   -1261.6367    357.08664    469.63986    571.46477    36341.856 
   20700     296.2039   -1262.4122    322.17988    399.16879    439.85266    36341.856 
   20800    307.51812   -1283.3924    352.65239     459.8227    635.57314    36341.856 
   20900    307.80609   -1228.8009     339.3872     502.4512    689.44925    36341.856 
   21000    302.55021   -1248.8701    354.04656    473.27492    1294.7047    36341.856 
   21100    301.33682   -1249.6965    353.31237    466.22752    1034.0853    36341.856 
   21200    313.88188    -1248.668    349.54909    520.22004    485.31402    36341.856 
   21300    296.44231   -1227.1287    347.13651    460.48695     432.4234    36341.856 
   21400    305.26341   -1258.1037      342.365    464.62852    219.58186    36341.856 
   21500    302.12703   -1247.9468    330.09742    448.33551    384.58825    36341.856 
   21600    298.79638   -1267.1746     341.6364    425.58583   -53.090622    36341.856 
   21700    307.52857   -1253.2837    340.90849    478.23478   -263.37412    36341.856 
   21800    315.40151   -1236.3933    345.67554     535.4928   -49.730958    36341.856 
   21900    296.93902   -1257.7733    345.89544    430.84738    230.59794    36341.856 
   22000    295.18851   -1288.7397    358.44583    404.51577    106.88084    36341.856 
   22100     309.2522   -1283.0533    348.25499    463.60572    375.68373    36341.856 
   22200    292.79637   -1273.1229    362.39797    413.26771    70.958386    36341.856 
   22300    296.78562   -1268.2276    341.41297    415.21698    27.010684    36341.856 
   22400    300.83653    -1262.602    344.41683    442.16416    -108.3572    36341.856 
   22500    304.18685   -1235.2397    355.95489     496.2143   -99.015047    36341.856 
   22600    293.64985    -1258.585    342.39074    411.65771   -68.315061    36341.856 
   22700    303.18696   -1274.8665    346.51921    442.63038    212.74567    36341.856 
   22800    304.84447    -1278.277    355.91984    456.11563   -49.334564    36341.856 
   22900    298.48201   -1264.1151    351.65474    437.24211    64.414397    36341.856 
   23000    299.59576   -1251.1551    349.79295    453.37658    97.618434    36341.856 
   23100    298.31972   -1243.1172    350.90831    456.75978   -67.193232    36341.856 
   23200    296.90241   -1261.7294    334.34457    415.17488    234.98682    36341.856 
   23300    303.12929   -1242.3022    355.33651    483.75126     497.0721    36341.856 
   23400     301.4131   -1217.6259    358.21329    503.54389    366.47776    36341.856 
   23500     301.2938   -1263.6753    367.96846    466.71028    295.47718    36341.856 
   23600    295.81396   -1268.0524    356.54328    426.12872    100.74003    36341.856 
   23700     300.4341    -1278.518    351.13287    431.14445    95.746422    36341.856 
   23800    291.75342   -1269.9971    354.20615    403.48564     280.7961    36341.856 
   23900    303.05436   -1224.0268    353.28337    499.63467    73.077527    36341.856 
   24000     297.5391   -1291.5301    354.55278    408.46138    344.50723    36341.856 
   24100    300.23799    -1280.305    366.20445    443.54226    404.68777    36341.856 
   24200    287.21422   -1274.7505     359.0449    383.04514    44.280611    36341.856 
   24300    305.28948     -1267.46    343.70693    456.73202    270.15446    36341.856 
   24400    295.57938   -1289.5973    367.20358    414.18336   -136.09656    36341.856 
   24500    306.22466    -1272.096    359.60288     472.2208    194.83202    36341.856 
   24600    302.76401    -1304.503    360.88162    425.44386    54.118805    36341.856 
   24700    295.31828   -1257.9327    369.22342     446.6872    241.51206    36341.856 
   24800    310.10838   -1284.5377    374.07427    491.81223    468.87793    36341.856 
   24900    294.93613   -1264.3676    375.99331    445.29404    462.54949    36341.856 
   25000    304.01339   -1259.9668    360.26433     475.0123    887.15012    36341.856 
   25100    288.61061   -1315.7606     365.7421    355.04663    674.86642    36341.856 
   25200    294.95011   -1306.4576    368.10104     395.3751    463.41441    36341.856 
   25300    315.84158   -1256.1215    379.85657     551.9356   -135.17922    36341.856 
   25400     302.8388   -1262.6505    380.55401    487.30689    -520.9892    36341.856 
   25500    304.03916   -1262.8145    363.98367     476.0005   -317.35322    36341.856 
   25600    299.57728   -1244.6306    357.76955    467.79415   -501.04722    36341.856 
   25700    299.84392    -1255.328    349.28244    449.81528    271.99695    36341.856 
   25800    294.86469   -1259.2497    377.68919    451.78487   -255.12514    36341.856 
   25900    292.23878    -1245.184    382.12955    458.41683   -151.14513    36341.856 
   26000    291.64088   -1244.3053    389.32364    463.78599   -32.799768    36341.856 
   26100    297.17248   -1267.9953    361.10286    436.88845    419.09977    36341.856 
   26200    303.21854   -1249.6767    372.38602    493.82986    519.08895    36341.856 
   26300    305.22423   -1265.8627    378.86355    493.19091    366.73198    36341.856 
   26400    299.01153   -1259.8351    378.30332    470.56514    403.42321    36341.856 
   26500    297.37914    -1259.666    371.71213    456.76155    132.87605    36341.856 
   26600    296.88543   -1243.9239    375.83983    474.39887    418.17903    36341.856 
   26700    310.43723   -1256.2831    369.21302     516.6926    -6.525491    36341.856 
   26800    307.73326   -1301.1609    373.23707    463.61175    241.70811    36341.856 
   26900    301.52004   -1291.8593    378.12475    449.70555    432.01424    36341.856 
   27000    301.08806   -1258.3112    365.04578    468.22127    9.0209939    36341.856 
   27100    307.47039   -1238.6866     372.2242    523.88454    378.90274    36341.856 
   27200    301.91666   -1258.9903    385.85985    492.10317    637.79169    36341.856 
   27300    301.39337    -1212.358    384.74715    535.25647    825.27676    36341.856 
   27400    298.27872   -1276.4043     371.1606    443.53948     629.2053    36341.856 
   27500    294.88982   -1258.0425    369.99339    445.40993     261.1532    36341.856 
   27600    300.05224   -1242.5158     371.9559    486.24293    31.505171    36341.856 
   27700    295.64074   -1273.8039    371.89544    434.94614    187.19024    36341.856 
   27800    309.86427   -1226.1938     381.6726    556.65063    200.93096    36341.856 
   27900    299.75354    -1296.226    344.56237    403.78856   -148.33091    36341.856 
   28000    305.68088   -1280.8804    381.49453    482.86912    106.01271    36341.856 
   28100    301.13557   -1269.1772    375.08911    467.61353   -31.359235    36341.856 
   28200    299.94492   -1284.8043     367.0738    438.58706    1.0912143    36341.856 
   28300    287.90147   -1253.0735    372.05432    420.83927   -665.38974    36341.856 
   28400    290.14317   -1280.1639    360.81458    392.64586   -574.15404    36341.856 
   28500    300.45943   -1251.6914    365.97324    472.92599   -60.140969    36341.856 
   28600    302.56159   -1337.8354    361.70162    392.01613    -187.2548    36341.856 
   28700    309.56355   -1322.7978    365.52401    442.53813   -191.12589    36341.856 
   28800    309.42758   -1324.1141    368.36736    443.45039   -416.57252    36341.856 
   28900    306.78029   -1292.6374    359.59862     454.1876   -101.41315    36341.856 
   29000    294.36797   -1315.5261     383.4971    399.07026   -102.73914    36341.856 
   29100    308.73928    -1306.829    372.24079    461.49648   -43.817958    36341.856 
   29200    292.77886   -1317.8059    386.27429    392.38188    41.128543    36341.856 
   29300    301.03768   -1328.4879    344.38263    377.15369     176.5284    36341.856 
   29400    300.44032   -1339.7733    377.22016    396.00457    519.63801    36341.856 
   29500    297.16342   -1334.0323    374.57016    384.27778    908.23588    36341.856 
   29600    307.12848   -1317.5314    362.35373    433.62313    762.97702    36341.856 
   29700    307.31724   -1318.0369    368.16023    439.77773    362.43793    36341.856 
   29800    295.59565   -1292.8578    374.09053    417.88343    41.366554    36341.856 
   29900    307.30491   -1275.7625     363.8335    477.66965    256.56463    36341.856 
   30000     294.3695   -1289.8565      367.656    408.90567    96.863328    36341.856 
   30100    302.57203   -1272.5101    385.60127    481.28831   -245.53255    36341.856 
   30200    295.04924   -1285.6797    376.96205    425.46227    139.51828    36341.856 
   30300    303.09772   -1309.0479     385.7657    447.29204    128.40394    36341.856 
   30400    302.66787   -1294.2276    371.79224    446.19513    4.1281547    36341.856 
   30500    304.41373   -1301.3695    361.80559    436.96108    128.42454    36341.856 
   30600    302.63114   -1234.2641    392.10226    526.30253    470.38981    36341.856 
   30700    303.34178   -1341.6091    366.54289    396.61161    340.45441    36341.856 
   30800    300.22801   -1329.3046    377.89677    406.18987   -106.75078    36341.856 
   30900    293.95658   -1321.1272    379.47957    387.59136    171.32657    36341.856 
   31000    297.86137   -1304.0433    397.20505    440.05777   -201.52659    36341.856 
   31100    306.48957    -1297.563     381.6954    470.04419   -248.12274    36341.856 
   31200    301.36231   -1288.6511    374.69067    448.76641   -42.655156    36341.856 
   31300    295.71506   -1253.4702    370.59274    454.31319   -215.86293    36341.856 
   31400    304.37421   -1340.9665    377.90436    413.28422    -527.6404    36341.856 
   31500    303.96704   -1294.0266    383.16636    463.64499    278.33405    36341.856 
   31600     305.5853   -1347.5098    368.29027     402.6032    53.782906    36341.856 
   31700    309.80344   -1308.0013    362.53468    455.43013   -90.390215    36341.856 
   31800    303.20021   -1317.0766    376.73037    430.69144     106.9668    36341.856 
   31900    301.06613   -1326.7726    389.98598    424.60098    364.47923    36341.856 
   32000    306.58467   -1327.2257    376.54543    435.66151    527.57985    36341.856 
   32100    293.08844   -1279.5026    375.38932     421.2001    506.81975    36341.856 
   32200    297.56234   -1278.8546    389.93119    456.62038    129.40116    36341.856 
   32300    308.55561     -1294.85    398.64764    499.05174    149.75269    36341.856 
   32400    296.38654   -1305.0419    400.06076    435.24581   -329.61749    36341.856 
   32500    295.24097   -1276.5627    387.45923     445.9434   -56.661633    36341.856 
   32600    292.90499   -1282.6544    383.48157    425.31096   -492.41484    36341.856 
   32700    296.81296   -1304.8145     404.0902    441.43085   -1.2470121    36341.856 
   32800    302.11204   -1331.4489     373.7187    408.38686    80.981948    36341.856 
   32900    298.39833   -1267.3786    388.61472    470.56017    456.21302    36341.856 
   33000    298.42286   -1322.3971    391.73279    418.77066    287.69668    36341.856 
   33100    313.06214   -1250.1533    392.17123    557.65018    637.32707    36341.856 
   33200    299.26885   -1246.5552    384.85473    491.55998    739.01251    36341.856 
   33300    300.54264   -1293.1286    393.53844    459.43026    452.74473    36341.856 
   33400    289.32587   -1250.6906    421.58924    479.19802    392.49255    36341.856 
   33500    289.13549   -1281.7949    391.31985    416.96351    254.32207    36341.856 
   33600    304.85261   -1316.8871    409.13665    470.75922    505.51227    36341.856 
   33700    289.87576   -1293.0972    377.28993    394.97873    378.65236    36341.856 
   33800    290.77454   -1297.3681    392.04855    409.53067    684.38224    36341.856 
   33900    293.95179   -1273.0708    402.58896    458.73551    141.31327    36341.856 
   34000    301.66456   -1280.6381    399.13195    482.58744    31.648023    36341.856 
   34100    306.71507   -1228.5556    403.75592    562.13179     2.944324    36341.856 
   34200    304.81235   -1271.9926    413.48941    519.82441    304.74492    36341.856 
   34300    299.58168   -1314.4517    384.05908     424.2824    75.421289    36341.856 
   34400    297.52222   -1312.1176    377.39081    410.63565    -51.68465    36341.856 
   34500    300.58816   -1322.0118    404.38449    441.59894    396.24691    36341.856 
   34600    305.21342   -1326.1728    387.62176    441.59012      192.538    36341.856 
   34700    311.79759   -1326.1277    370.26583     454.0522    -20.44641    36341.856 
   34800    294.05133   -1307.7866    391.50291     413.3838    19.623447    36341.856 
   34900    300.91839   -1281.4314    391.70284    470.99101    269.86524    36341.856 
   35000     305.1252   -1274.9776     407.7754    512.54002    239.97321    36341.856 
   35100    286.57236   -1318.6157     423.8213    401.05397    184.68761    36341.856 
   35200    303.98098   -1296.3925     392.1491    470.32479    45.761257    36341.856 
   35300    297.41372   -1330.2207    386.84095    401.49203   -424.81355    36341.856 
   35400    306.86823   -1328.1905     409.0425    468.47598   -415.68296    36341.856 
   35500    303.73496   -1345.3817    399.80949    427.88351      442.428    36341.856 
   35600    304.79582    -1324.669    405.02328    458.60709    340.58117    36341.856 
   35700    309.39882   -1315.6178     404.8798    488.32903     116.5523    36341.856 
   35800    298.15339   -1311.6288    411.31693    447.90463    406.40195    36341.856 
   35900    302.81154   -1316.8513    409.50075    461.92953     337.8423    36341.856 
   36000    309.45352   -1295.4028    400.92142    504.83301    123.50725    36341.856 
   36100    297.37814   -1275.2644    395.69742    465.14391    99.170408    36341.856 
   36200     290.9538   -1310.3519    400.38046    405.68929   -36.126337    36341.856 
   36300    294.20706   -1314.0552    410.54063    426.85702    127.88925    36341.856 
   36400    298.25743   -1323.1332     384.5301     410.0839    32.261185    36341.856 
   36500    311.83505   -1339.4866    389.13232    459.72915  -0.82104002    36341.856 
   36600    305.19566   -1301.4834    403.95762    482.53507    243.97457    36341.856 
   36700    295.72103   -1313.8546    403.74065    427.10364   -139.17609    36341.856 
   36800    298.59753   -1299.0012    394.07856    445.30222   -207.18695    36341.856 
   36900    295.98997   -1300.1559    379.21721    417.49502    -82.92607    36341.856 
   37000    302.82902   -1353.3295    396.65089    412.68055   -148.40028    36341.856 
   37100    287.72333   -1336.7183    410.41076    374.74531   -231.34688    36341.856 
   37200    293.01746    -1327.566    386.51163    383.93802    72.309898    36341.856 
   37300    295.10312   -1340.8295    394.57776    388.17173    200.06832    36341.856 
   37400    295.16415   -1316.5561    377.21448    395.35782    233.19235    36341.856 
   37500    292.11786   -1297.0337    403.85152     427.7423    432.14966    36341.856 
   37600    292.25464   -1326.7534    391.50532    386.29488    165.39847    36341.856 
   37700    298.70298   -1336.3552    378.90755    393.25402    130.28199    36341.856 
   37800    297.75499   -1349.0668    400.95133    398.29947    636.23908    36341.856 
   37900    299.97604    -1334.304    395.06974     417.2241    541.98571    36341.856 
   38000    318.03165   -1311.5463    415.64541    542.20286    448.82287    36341.856 
   38100    309.40056   -1341.0026    405.89714    463.96952    440.38313    36341.856 
   38200    303.39083   -1330.7988    409.39944    450.50031     102.6972    36341.856 
   38300     310.3012    -1274.013    398.52631    527.66081    709.97759    36341.856 
   38400    309.27654   -1305.4476    401.56508    494.63166    571.87668    36341.856 
   38500     297.6274   -1308.8838    401.95977    438.91404    203.50653    36341.856 
   38600    301.92456   -1291.2412    405.16945    479.19752    212.41693    36341.856 
   38700    308.37585   -1338.5669     407.9839    463.85829     88.90002    36341.856 
   38800    307.69318   -1369.9159     405.8381     427.2766    354.49216    36341.856 
   38900    298.16119   -1365.5201    414.89435    397.62601    -214.0648    36341.856 
   39000    298.27882   -1310.5001    432.33319    470.61681   -80.072774    36341.856 
   39100    291.96068    -1307.648    398.88163    411.44742    57.703025    36341.856 
   39200    304.81945    -1316.499    379.35409    441.21477   -170.81976    36341.856 
   39300    299.53331   -1347.9981    391.80138    398.25958    43.241974    36341.856 
   39400    301.62541    -1351.089    385.11058     397.9382    173.59429    36341.856 
   39500    296.75113   -1341.8587    401.91187     401.9288   -79.040893    36341.856 
   39600    300.16417   -1313.2104    415.15232    459.25094    239.12531    36341.856 
   39700    294.62033   -1293.3997    414.48622    453.32696    318.72717    36341.856 
   39800    294.05622   -1359.2147    413.09968     383.5745    143.41603    36341.856 
   39900    308.80024    -1377.512    413.67132    432.51965    341.26487    36341.856 
   40000    297.16594    -1354.999    420.91396    409.66636    368.19784    36341.856 
   40100    292.90928   -1329.2802     404.9311    400.15411    312.43451    36341.856 
   40200    297.46002   -1346.8901    402.46466    400.65566   -22.053198    36341.856 
   40300    292.68734   -1332.3905    381.30395    372.41306    332.24531    36341.856 
   40400    304.67453   -1330.4763    413.10545    460.33349   -354.42098    36341.856 
   40500    294.26436   -1352.0983    403.96852    382.50099   -396.91066    36341.856 
   40600    306.15615   -1335.8655    393.15821    441.69676   -321.26882    36341.856 
   40700    300.40634   -1326.7951    393.11814    424.72706   -68.590508    36341.856 
   40800    288.85869   -1335.6456    419.79449    390.33581    -199.0146    36341.856 
   40900    301.18423   -1324.0571    415.37812    453.24265    311.09312    36341.856 
   41000    309.79929   -1290.6245    415.14597    525.39938    214.49429    36341.856 
   41100    293.74066   -1315.6701    412.42235    425.01487   -418.27686    36341.856 
   41200    299.83692   -1365.8284    399.71954    389.72037    200.11146    36341.856 
   41300    308.17252   -1349.2688    398.37083    442.62392   -314.59981    36341.856 
   41400    306.45964    -1305.867    405.67308    485.58247   -543.18248    36341.856 
   41500    300.45645   -1304.9893    417.11244    470.75376    139.68996    36341.856 
   41600    295.50525   -1345.0436    413.93815    405.13642   -178.19556    36341.856 
   41700    298.89304   -1353.6093    413.01925    410.97107    239.62675    36341.856 
   41800    287.26612   -1373.1052    393.80217    319.68241   -185.90295    36341.856 
   41900    299.66279   -1357.0017    398.58928    396.62942    36.269214    36341.856 
   42000    286.90506   -1355.3844    407.21024    349.17862    137.66661    36341.856 
   42100    311.50285   -1341.0042    401.88523    469.46225    43.285258    36341.856 
   42200    296.79704   -1339.6705     414.0577    416.47046   -242.07339    36341.856 
   42300    299.35874   -1325.9478     415.2953    443.01443   -25.620454    36341.856 
   42400    307.67464   -1378.1375    402.94418    416.07723    351.53262    36341.856 
   42500    285.98775   -1381.5791    395.27295     306.8987    -387.0626    36341.856 
   42600    310.55205    -1326.207    405.60927    483.68414    53.026226    36341.856 
   42700    299.67215   -1350.9297    391.52501    395.67947    156.93872    36341.856 
   42800    287.25219   -1329.4119     409.2421    378.75271    322.88329    36341.856 
   42900    302.59976   -1325.1164    418.67382    461.87994    346.34498    36341.856 
   43000    300.89383   -1332.3769     424.8686    453.10017    773.53908    36341.856 
   43100    291.60977   -1334.9207    450.21728    433.92355    752.28304    36341.856 
   43200    302.36591   -1301.4342    406.94579    472.77663    350.52173    36341.856 
   43300    299.33503   -1356.4785    419.70501    416.78621    -300.3886    36341.856 
   43400    310.06406    -1349.121    401.35328    454.30746    527.85756    36341.856 
   43500    309.66558   -1381.0541    430.97745    450.19674    370.97504    36341.856 
   43600    301.21511   -1303.7845     448.8526    507.12938    399.47176    36341.856 
   43700    295.69753   -1376.6886    417.30184     377.7246    48.259197    36341.856 
   43800    296.74946   -1378.3078    413.45199    377.01226   -87.958145    36341.856 
   43900    301.26851    -1312.036    405.19434    455.46102    379.19965    36341.856 
   44000    295.15928    -1354.198    421.71729    402.19672    630.97306    36341.856 
   44100    298.53496   -1345.1437     404.9746    409.77279    425.28519    36341.856 
   44200    303.04141   -1360.7798    429.49693    439.03673    613.10249    36341.856 
   44300    306.06847   -1390.8681    426.60675    419.74629    57.639625    36341.856 
   44400    307.23879    -1351.712    439.26414     476.8518    434.44243    36341.856 
   44500    306.62358   -1368.2448    423.98197    442.25489    683.74461    36341.856 
   44600     300.4819   -1364.3295    445.05358    439.46985    663.69009    36341.856 
   44700    296.84323   -1343.7642     411.1856    409.71349     232.4071    36341.856 
   44800    303.69472   -1372.9277    418.79084    419.13686    498.88447    36341.856 
   44900    308.34554   -1400.9545    412.42776    405.77753    176.70218    36341.856 
   45000    304.50888   -1437.6346    399.80195    339.12265   -175.76088    36341.856 
   45100    286.04982   -1397.8936    419.41018    315.00201   -497.99721    36341.856 
   45200    296.21796   -1373.0971    415.65689    382.02445    52.616391    36341.856 
   45300    304.33248   -1382.9979    400.60644    393.76621   -133.01131    36341.856 
   45400    303.30478    -1385.549    418.46258     404.4241    164.28198    36341.856 
   45500    296.89288   -1329.5456    449.06203    462.03302   -239.02506    36341.856 
   45600    300.56528   -1335.7606    407.90034    431.26251    -306.8495    36341.856 
   45700    293.18286   -1317.8883    418.72353    426.57558    116.56857    36341.856 
   45800    298.11486   -1346.6608    434.90601    436.28751    -51.46178    36341.856 
   45900    305.71026   -1383.6575    414.29449    413.02477    330.78383    36341.856 
   46000    295.07724   -1351.1933    440.48758    423.60079    82.392315    36341.856 
   46100    295.04736   -1376.7162    417.11795    374.57316    87.273528    36341.856 
   46200    299.43176   -1295.1819    415.46649    474.28172   -234.13497    36341.856 
   46300     304.1728   -1289.0229    438.69694    525.10965    -1042.233    36341.856 
   46400    303.77692   -1318.4643    420.58371    475.76487   -311.68358    36341.856 
   46500    302.55629   -1346.8592    434.19903    455.46575   -255.22442    36341.856 
   46600    291.28195   -1360.4018    446.33017    403.07299   -63.066725    36341.856 
   46700    315.96037   -1350.2828    427.90664    506.36151    -753.3673    36341.856 
   46800    300.42715    -1359.278    425.35392    424.57408   -596.48052    36341.856 
   46900    300.71508   -1354.2046    432.15523    437.75078   -211.34682    36341.856 
   47000    308.65525   -1346.6966    434.72835    483.73646   -1221.0978    36341.856 
   47100    286.79042   -1329.6054    437.56706    404.79612   -743.68101    36341.856 
   47200    306.65373   -1355.7424    424.81563    455.72734   -56.860203    36341.856 
   47300    302.51573   -1327.3434    435.69549    476.29459    -29.63376    36341.856 
   47400    298.94233   -1321.8062     441.7817    471.75947    163.40688    36341.856 
   47500    317.37258    -1347.843    421.87172    509.15218     622.2034    36341.856 
   47600    305.01845   -1314.7275    437.41909    501.95106    18.848432    36341.856 
   47700    297.78082   -1352.7855    415.67034    409.41664    177.26672    36341.856 
   47800    312.18432   -1340.9429    447.76168    518.48157    578.97073    36341.856 
   47900    306.23452   -1354.7816    414.73519     444.7121    365.96386    36341.856 
   48000    300.01208   -1331.9582    445.60146     470.2646    183.64649    36341.856 
   48100    295.95228   -1329.6214    424.59747    433.23943    438.48952    36341.856 
   48200    294.35714   -1352.3857    408.48647    387.15109    22.493825    36341.856 
   48300    301.09863   -1361.4448    431.00374    431.09348   -158.79183    36341.856 
   48400    300.53475   -1307.0955    457.64037    509.52964    -120.2577    36341.856 
   48500    313.36153   -1336.6145    426.89018    507.26164   -117.85135    36341.856 
   48600    314.69595   -1377.4609    412.79759    458.35675   -73.428108    36341.856 
   48700    302.71306   -1295.7041    434.98934    508.12008    292.65674    36341.856 
   48800    299.04838    -1372.777    431.17315    410.65973    445.55187    36341.856 
   48900    306.25907   -1340.9357    441.20893    485.14273    551.86433    36341.856 
   49000    311.40585   -1376.1495    419.94893    451.94203   -139.97699    36341.856 
   49100    309.87716   -1371.7862    422.20771    451.65157    479.01393    36341.856 
   49200    309.40109   -1408.8263    425.94892    416.19995    633.97146    36341.856 
   49300    305.43736   -1433.2913    415.80116    363.66366     507.2972    36341.856 
   49400     295.1644   -1396.5476      433.324    371.47697    973.80709    36341.856 
   49500    300.48643   -1400.0404    439.42822    398.15406    751.00058    36341.856 
   49600    291.17518   -1375.6843    444.21978    385.19722    760.27045    36341.856 
   49700    293.28115   -1387.5849    426.58803    365.18789    214.42775    36341.856 
   49800    312.09262   -1390.3172    420.37648    441.30746    546.55821    36341.856 
   49900    310.86851   -1370.2701    425.74481    461.18751    304.67894    36341.856 
   50000    300.92247   -1395.0459    419.07604    384.76809    65.696967    36341.856 
   50100    301.31677   -1408.7805     421.4814    375.22188   -153.90058    36341.856 
   50200    293.98944   -1370.5172    413.21404    372.08444   -615.01048    36341.856 
   50300    302.42474   -1375.9556     423.2786    414.85406    120.45988    36341.856 
   50400    301.00714   -1387.8239    432.69165    405.98863    55.615413    36341.856 
   50500     304.7103   -1344.8713    422.24166    455.23646    44.181175    36341.856 
   50600    297.97257   -1340.2788    443.02073    450.14075    64.877809    36341.856 
   50700    302.53301   -1370.7504    427.75691    425.02716   -192.62264    36341.856 
   50800    302.06846   -1352.9627    428.75553    441.71284    409.59361    36341.856 
   50900    306.52574     -1360.01    422.16448    448.22981    476.34269    36341.856 
   51000    307.65715   -1380.4336    430.13831     440.8962    58.563146    36341.856 
   51100    302.20301   -1364.8162    446.48792    448.20011    680.73373    36341.856 
   51200    294.96341   -1378.5872    416.86851    372.07306    552.82062    36341.856 
   51300    298.84305   -1378.4778    442.56133     415.4186    534.68343    36341.856 
   51400    302.76881   -1375.6013    444.44131    437.92696    56.530398    36341.856 
   51500    301.55755   -1374.6623    452.75281    441.70025    180.92806    36341.856 
   51600    297.58108   -1409.2241    427.89335    364.29786    59.080315    36341.856 
   51700    301.91714   -1401.9852    439.96304     403.2136    418.32555    36341.856 
   51800    308.94988   -1372.1961    446.20513      471.046   -26.556971    36341.856 
   51900    296.21224   -1354.4601    467.05713    452.03583   -37.462597    36341.856 
   52000    297.82639   -1355.0907    455.24736    446.89453    -351.7393    36341.856 
   52100    304.61315   -1350.6754    467.37387    494.12527   -36.616819    36341.856 
   52200    292.88019   -1331.9453    452.04521    444.47158   -184.07579    36341.856 
   52300    295.43978     -1336.81    459.19065    458.32648    50.983342    36341.856 
   52400    295.93024   -1392.0055    446.03116    392.18933    296.12919    36341.856 
   52500    307.44444   -1372.3917    425.12994    442.96789    295.21664    36341.856 
   52600    303.35991   -1344.5951    428.57513     455.7398    458.95727    36341.856 
   52700    301.04526   -1324.7792    458.37082    494.88483    -415.3451    36341.856 
   52800    314.11897   -1323.5755    450.48823    547.32378   -453.26454    36341.856 
   52900    310.59405   -1346.1561    442.83958    501.15524   -654.56306    36341.856 
   53000    296.94438   -1368.7924    444.06854    418.02567   -484.73487    36341.856 
   53100    293.16938   -1357.9126    442.14812     409.9149   -95.019531    36341.856 
   53200     289.0504   -1374.2681    441.50828    374.29394   -241.41432    36341.856 
   53300    305.57847   -1410.3654     425.6956    397.12206   -106.81308    36341.856 
   53400    312.08858   -1375.2282    433.05831    469.05997    285.52236    36341.856 
   53500     306.9676   -1343.7969    452.45932    496.73576   -506.38782    36341.856 
   53600     308.2219   -1347.0187    430.03136    476.75782   -289.14006    36341.856 
   53700    301.09654   -1311.0288    439.11895    489.61524    229.86557    36341.856 
   53800    297.91788   -1350.8473    457.28344    453.58774    585.03203    36341.856 
   53900    297.11467   -1337.6822    482.01593    487.85321    541.56178    36341.856 
   54000    296.04061   -1338.0498     459.6142    460.22714     357.9445    36341.856 
   54100    310.32256   -1352.5939    439.62063    490.27082     249.6934    36341.856 
   54200    295.12582    -1354.077    433.15784    413.60702    66.789427    36341.856 
   54300     302.7625   -1369.4974    425.44398    425.00499    123.29579    36341.856 
   54400    298.25769   -1341.6485    433.83139    440.87106    461.80956    36341.856 
   54500    298.72804   -1339.4788    434.14696    445.48316    428.77334    36341.856 
   54600    295.29258   -1333.0803    438.83798    441.03788    172.87785    36341.856 
   54700    300.48502   -1364.0312    423.16529    417.89396    488.51488    36341.856 
   54800    305.97234   -1376.3768    446.79484    453.99097    609.80519    36341.856 
   54900    302.97514   -1366.5896     434.8746     438.3049    346.41579    36341.856 
   55000    298.04214   -1385.0439    431.36726    394.03678    86.367376    36341.856 
   55100    296.70294   -1399.8067    444.86066    386.71162    452.77697    36341.856 
   55200    288.93552   -1379.6257     431.7729    358.68154    252.94151    36341.856 
   55300    300.93712   -1356.5553    444.34311      448.592    469.46146    36341.856 
   55400    293.97663   -1382.7248    433.45109    380.05595    444.16348    36341.856 
   55500    299.53922   -1356.7797    427.56903    425.27243    53.297609    36341.856 
   55600    293.03007   -1354.9702     443.9328    414.01203   -36.344119    36341.856 
   55700    300.19737   -1332.9772    457.90027    482.38219    -134.3036    36341.856 
   55800    293.09421   -1356.6809    461.73028    430.38881   -198.04129    36341.856 
   55900     314.0131   -1388.1713    445.29416    477.05522   -274.47702    36341.856 
   56000    302.37756   -1394.8795    422.80743    395.24562   -7.6236685    36341.856 
   56100    295.30874   -1363.2757    443.18394    415.26158   -237.86631    36341.856 
   56200    302.26021   -1343.3442    431.90977    455.35268    391.62754    36341.856 
   56300    290.93271    -1342.189    432.44274    405.81914    164.80731    36341.856 
   56400    297.31082   -1376.3641    450.26257    418.30495    573.52033    36341.856 
   56500    309.11548   -1398.1129    441.48718    441.16013    146.65829    36341.856 
   56600     296.4842   -1396.0947    452.65615    397.23004    759.61812    36341.856 
   56700    310.90173   -1370.3169    454.17832    489.72442    801.76394    36341.856 
   56800    304.18979   -1357.2682    477.80091    496.04515    435.99087    36341.856 
   56900     299.6706    -1367.472    458.13109    445.73626    268.15922    36341.856 
   57000     312.6234   -1386.5364    431.67159    458.78345    369.90287    36341.856 
   57100    311.48272   -1391.7173    444.00355    460.77647    231.44237    36341.856 
   57200    297.09472   -1378.6138    447.29585    412.11139   -29.371272    36341.856 
   57300    291.82064   -1340.3613    445.80426     425.0235    194.14632    36341.856 
   57400     294.3827   -1452.7536    411.59628    290.00854    507.93303    36341.856 
   57500    302.10049   -1454.1575    430.66477    342.57211    269.43923    36341.856 
   57600    300.75505   -1453.3477    439.13783    345.77109     801.7866    36341.856 
   57700    297.22616   -1414.4408    454.98273    384.56554     502.5822    36341.856 
   57800    295.48444   -1420.2988    419.30242    335.15139   -50.058908    36341.856 
   57900    295.73156   -1417.9913    432.82802    352.10192    9.3982946    36341.856 
   58000    299.77445   -1469.1823    425.16808     311.5325    375.32081    36341.856 
   58100    300.21436   -1437.2254    433.59655    353.90715     584.2166    36341.856 
   58200    297.67711   -1428.3349    448.61314    366.34107    450.50548    36341.856 
   58300    294.79072   -1400.5249    474.71586     407.2018    420.13461    36341.856 
   58400    293.69579   -1413.7402    413.02157    327.34104    176.83062    36341.856 
   58500    298.97517   -1393.9377    440.94739    398.94222    390.43855    36341.856 
   58600    303.52851   -1379.0653    463.14521    456.60211   -423.49855    36341.856 
   58700    299.76988   -1434.9666    442.58724    363.14676   -92.942449    36341.856 
   58800    304.02066   -1427.1504    458.59626    406.19349   -711.88753    36341.856 
   58900    293.24152   -1410.4693    435.02261    350.55886   -983.05356    36341.856 
   59000    292.46711   -1353.4035    477.39672      446.497   -115.36442    36341.856 
   59100    291.11211   -1354.7406    441.18418    402.82022   -606.42073    36341.856 
   59200    300.95307   -1356.9894    438.90142    442.78835   -227.01364    36341.856 
   59300    310.32412    -1327.497    469.09126    544.84547   -220.99971    36341.856 
   59400    310.43962   -1358.5763    455.87867    501.07587   -153.13711    36341.856 
   59500    302.77294   -1430.8455    457.98936    396.24943   -247.86165    36341.856 
   59600    303.52114   -1374.1162    453.68184    452.05452    145.61979    36341.856 
   59700    307.86734    -1389.905    426.24516    428.48202   -318.03191    36341.856 
   59800    296.10055   -1363.5289    401.28266    376.68751   -76.519728    36341.856 
   59900    305.69763   -1348.6155    470.35092    504.06607   -384.73807    36341.856 
   60000    292.97503   -1372.1132    449.57442    402.26175   -36.364306    36341.856 
   60100    292.23657   -1390.4734    442.29571    373.28365   -563.86248    36341.856 
   60200    303.15167   -1368.7186    444.38293     446.4825   -620.12604    36341.856 
   60300    304.61296   -1342.6623    467.32868    502.09227    -797.2375    36341.856 
   60400    297.24609   -1371.1571    459.24291    432.19956   -485.10556    36341.856 
   60500    301.32476   -1384.7241    462.65166    440.48467   -312.23916    36341.856 
   60600    287.49572   -1317.7923    471.30292    453.53427   -91.547183    36341.856 
   60700     293.5596   -1332.4019    471.05718    466.09914   -292.19761    36341.856 
   60800    303.72532   -1354.2464    429.27057    448.43631    151.37948    36341.856 
   60900    300.80716   -1397.5934    448.80276    411.42593   -179.59521    36341.856 
   61000    303.93974      -1397.8    447.82562    424.40736   -103.59271    36341.856 
   61100    299.67343   -1429.1079    425.59078    351.57283    50.028056    36341.856 
   61200     295.6333   -1403.3422      459.161    392.63967   -290.83006    36341.856 
   61300    304.37919   -1380.0171    458.25911    454.61086   -157.95488    36341.856 
   61400    307.59976   -1383.2769    456.04129    463.69634   -429.52492    36341.856 
   61500    290.44847   -1329.9014    490.11401    473.58832   -246.94869    36341.856 
   61600    290.13824   -1383.6489    448.62062    376.94457   -174.27822    36341.856 
   61700    299.61476   -1410.5262    437.46678    381.76525    437.12964    36341.856 
   61800    308.75903   -1381.6288    467.57566    482.12086   -367.52233    36341.856 
   61900    299.56037   -1377.1966    448.36498    425.74709   -161.80327    36341.856 
   62000    294.94382   -1370.0626    458.63583    422.27645    -226.0761    36341.856 
   62100    306.31305   -1358.3877    452.39283    479.11871    -363.0745    36341.856 
   62200    296.09384   -1369.0556    466.72819    436.57599   -390.76343    36341.856 
   62300    302.29355   -1372.1146    461.78312    456.60634   -325.23281    36341.856 
   62400    294.82237   -1359.5072    448.38701    422.03382    369.49477    36341.856 
   62500    305.17435   -1336.6806    459.25239    502.53626    -10.54075    36341.856 
   62600    299.72907   -1376.3652    478.94431    457.92066   -78.768972    36341.856 
   62700    296.43401   -1346.3914     451.2146    445.26481    233.21101    36341.856 
   62800    298.89348   -1391.1452    462.30723    422.72515    -309.9999    36341.856 
   62900    313.21128   -1406.0907    460.65751    470.87337    218.70723    36341.856 
   63000    296.48945   -1341.1948    450.29916    449.79664    244.28903    36341.856 
   63100    301.75767   -1347.1116    431.39094    448.79401    676.14014    36341.856 
   63200    304.55072   -1354.8753    458.23877    480.50799    323.63559    36341.856 
   63300    302.52252    -1378.636    456.59431    445.93156   -100.48741    36341.856 
   63400    287.26809   -1361.6193    450.05227     387.4273     220.0427    36341.856 
   63500    307.96514   -1414.9586    454.09045    431.71603    -110.3178    36341.856 
   63600    287.42035   -1406.5406    458.37945    351.52176   -482.40153    36341.856 
   63700    299.98662   -1348.1322    428.90063    437.27462   -250.55037    36341.856 
   63800    296.75156    -1353.907    445.84225    433.81278   -569.01751    36341.856 
   63900    295.29342   -1377.2259    454.72107    412.77921   -793.35379    36341.856 
   64000     308.2313   -1359.9077    458.83855    492.71847   -876.77211    36341.856 
   64100    299.50234   -1401.7942     433.1138    385.63586   -289.31175    36341.856 
   64200    291.87978   -1433.8809    459.14625    345.11329    118.08597    36341.856 
   64300    295.62992   -1427.1748     436.5081    346.13889    446.40766    36341.856 
   64400    309.99366   -1382.6483    437.90493    457.01347    792.38132    36341.856 
   64500    297.46207   -1388.1214    443.82067    400.78966    783.01825    36341.856 
   64600    305.55483   -1397.2452    457.30513    441.74493    904.48097    36341.856 
   64700    302.92275   -1398.8898    478.34888    449.24211    1159.5821    36341.856 
   64800    299.50899   -1371.4716    457.27383    440.14862    360.89706    36341.856 
   64900    300.15985   -1381.2083    444.11956    420.20073    577.33296    36341.856 
   65000    303.17004   -1397.5775    445.58159    418.90533   -225.97717    36341.856 
   65100     301.5111    -1391.144    472.05175    444.30738    186.40006    36341.856 
   65200     290.9064   -1385.8199    478.11165    407.73815    582.08808    36341.856 
   65300    302.54471   -1408.9592     451.2107    410.32503    826.99365    36341.856 
   65400    310.70824   -1384.8371    446.14625    466.29723    180.12154    36341.856 
   65500    302.07936   -1401.0574    473.67653    438.58842    281.07732    36341.856 
   65600    298.05543   -1373.8873    452.16874    426.05494     466.4719    36341.856 
   65700    303.56204   -1443.0815    446.41604    376.00835    206.73328    36341.856 
   65800    303.41249   -1408.0936    433.31876    397.22273   -309.30198    36341.856 
   65900    294.22194   -1426.2273    467.44297    371.65454   -260.16539    36341.856 
   66000    307.44089   -1403.3874    452.73899    439.56516    131.91468    36341.856 
   66100    301.56779    -1407.968    434.78159     390.4696    377.41387    36341.856 
   66200    291.79783   -1432.6812    433.71307    320.50925    240.78611    36341.856 
   66300    296.62882   -1421.6346    436.13176    355.81972    116.76515    36341.856 
   66400    311.89815   -1445.2253    428.16758    393.31105    385.30205    36341.856 
   66500    298.86588   -1438.6891    459.56355    372.31271    489.94393    36341.856 
   66600     308.3579   -1397.4783    451.54981    448.43172    284.86132    36341.856 
   66700    293.34058   -1341.2476    456.91542    442.12131    242.84637    36341.856 
   66800    304.30134   -1434.8237    434.90015    376.09328   -292.48877    36341.856 
   66900    292.31761   -1421.1421    473.06563    373.75122   -42.869283    36341.856 
   67000    302.79919   -1394.3302     465.0366    439.93067    514.14552    36341.856 
   67100    288.13928    -1408.772    469.82367     363.9854    356.32298    36341.856 
   67200    307.42702   -1421.2032    447.11354    416.06114   -25.560757    36341.856 
   67300    302.51147     -1410.84    457.09746     414.1807    95.693762    36341.856 
   67400    285.62931    -1363.755    440.71598    368.54495   -157.06682    36341.856 
   67500    287.45968   -1399.7618    466.85105       366.95   -288.79442    36341.856 
   67600    297.05555    -1412.992    461.49536    391.75555    468.71752    36341.856 
   67700    295.16471   -1425.0573    454.32173    363.96643    131.17147    36341.856 
   67800    305.80104     -1410.44     443.1536    415.51192    210.13155    36341.856 
   67900    297.87766   -1367.0663    460.18336    440.08669    17.412833    36341.856 
   68000    287.75398   -1387.2411    453.04118    366.99158    62.665307    36341.856 
   68100    310.49877   -1413.4552    447.26971    437.85539    312.40762    36341.856 
   68200    305.36265   -1388.8894    459.15681    451.08331   -50.526379    36341.856 
   68300    295.90597   -1356.4656    449.40669    430.99498   -377.17164    36341.856 
   68400    298.25351   -1396.8721    459.86523    411.66233   -464.91986    36341.856 
   68500    299.90505   -1363.2913    460.25293    453.09896   -489.83261    36341.856 
   68600    296.82569   -1393.6514    447.46963    396.03104   -561.74017    36341.856 
   68700     298.5142   -1372.6916     473.0919    450.24833   -435.76917    36341.856 
   68800    297.16045   -1440.9403    442.66394    345.45019   -142.80377    36341.856 
   68900    307.27831   -1361.3659    456.21107    484.32357    379.60911    36341.856 
   69000    301.80207   -1359.2183    451.27003    456.76716   -102.59526    36341.856 
   69100    309.37665   -1363.4516    464.65897     500.1742   -573.65264    36341.856 
   69200    295.67758   -1415.3894    455.43503    377.06678   -785.20057    36341.856 
   69300    302.65076   -1336.4273    457.05157    489.17736   -324.13186    36341.856 
   69400    306.96194   -1382.2682     469.6193    475.39887    524.26252    36341.856 
   69500     303.1303   -1359.1923     461.6814    473.21057    291.53962    36341.856 
   69600    298.71789   -1389.9317    447.88755    408.72489   -5.6420231    36341.856 
   69700    293.51641   -1337.3621    452.54638    442.43283    71.508158    36341.856 
   69800    291.99175   -1406.2372    453.24613    367.36313    98.950958    36341.856 
   69900    295.69157   -1400.3701    465.14039    401.85469    293.87073    36341.856 
   70000    303.10533   -1405.0398    463.83032    429.39913    679.32467    36341.856 
   70100    299.60052   -1365.0331    470.62706    460.35425    260.73004    36341.856 
   70200    292.45689   -1393.6616    453.07824    381.87421    372.46121    36341.856 
   70300    300.45942   -1353.3078     469.7478    475.08406    273.03949    36341.856 
   70400    289.99027    -1364.026    486.56204    433.83986    226.73081    36341.856 
   70500    302.66364   -1372.7452    470.68821    466.55429    163.58027    36341.856 
   70600    294.23028   -1392.3908    475.09613    413.18201    100.76428    36341.856 
   70700     297.9802   -1360.7384    460.61285    447.30783   -247.16753    36341.856 
   70800    309.11215   -1355.0923    452.19234    494.87084   -723.69104    36341.856 
   70900    296.17032   -1387.1265    467.03339    419.15616   -1145.6512    36341.856 
   71000    312.72744    -1368.303    456.89394     502.7097     -487.319    36341.856 
   71100    297.44684   -1410.3993    473.37088     407.9931   -1135.1476    36341.856 
   71200    307.97378    -1402.308    453.89402     444.2092   -736.49262    36341.856 
   71300    293.11918   -1367.4735    477.93406     435.9129   -599.60712    36341.856 
   71400    290.70658   -1376.4694    473.04633    411.11975    98.580068    36341.856 
   71500    295.78481   -1459.6392    444.75278    322.61966   -177.26464    36341.856 
   71600    297.91115   -1419.9064    430.38108    357.59576    577.17649    36341.856 
   71700    311.14849   -1409.6441    458.03853    455.37329    800.43415    36341.856 
   71800    303.76555   -1426.5668      460.917    407.94428    547.55029    36341.856 
   71900    293.45982   -1404.9934    454.09337    376.09264    470.61908    36341.856 
   72000     296.5959   -1372.8011    455.86383    424.23638   -110.56597    36341.856 
   72100    304.97415   -1416.5484    469.27479    431.78558   -380.80416    36341.856 
   72200    297.13056   -1454.5685    437.91273    326.93563   -397.78961    36341.856 
   72300    290.57516    -1399.703    478.08946    392.33509   -510.24258    36341.856 
   72400    297.17695   -1442.8303    465.97317    366.94396   -366.93186    36341.856 
   72500      301.806   -1428.8097    430.68916    366.61266   -595.47833    36341.856 
   72600    305.06427   -1391.0646    445.18621    433.58838   -215.31035    36341.856 
   72700    291.61064   -1387.0264    468.63028    400.23483   -302.44528    36341.856 
   72800    298.87566   -1420.1918    440.83309    372.12379    91.949776    36341.856 
   72900    302.10311   -1433.2626    438.50179    371.31588    20.999132    36341.856 
   73000    301.12514   -1366.3363    455.75582    451.07397    390.11699    36341.856 
   73100    293.04636   -1421.9233    474.48186    377.68159   -238.80494    36341.856 
   73200    294.88071   -1389.4126     487.1781    431.18332    47.172816    36341.856 
   73300    294.48744   -1379.4739    487.00414    439.16974   -157.28022    36341.856 
   73400    304.71407   -1418.4649    467.25459    426.67281    281.01049    36341.856 
   73500    309.85254   -1439.6065    457.60023    419.11253    7.4679787    36341.856 
   73600    302.85261    -1444.425    461.17507    386.21591   -769.71257    36341.856 
   73700    298.88772   -1398.0602     499.9056    453.38243    124.36505    36341.856 
   73800    294.54851   -1431.4939     475.4162    375.83794     443.3399    36341.856 
   73900    293.52674   -1430.6827    472.19448    368.80706   -214.52173    36341.856 
   74000    297.17082   -1430.3653    479.54559    392.95368    13.373944    36341.856 
   74100    307.46045   -1402.1855    463.54185     451.6583    210.98598    36341.856 
   74200    301.39816   -1446.1741     485.1184    401.83326  -0.98336629    36341.856 
   74300    294.96837   -1453.0053    458.26392    339.07282    -337.7601    36341.856 
   74400     293.1865   -1438.0838    460.96223    348.63516   -17.534884    36341.856 
   74500    317.63433   -1446.3058    441.01297     431.0143   -182.37879    36341.856 
   74600    293.81058   -1405.5895    484.26455    407.25379   -221.11469    36341.856 
   74700    289.48458    -1429.145    493.26369    373.13574    250.59935    36341.856 
   74800    302.44699   -1439.8703    438.49435    366.25569    348.92202    36341.856 
   74900    308.12582   -1453.5937    486.90725    426.62432   -110.84355    36341.856 
   75000     295.6062   -1455.3639    468.21939    349.55384    116.25365    36341.856 
   75100    305.83324   -1425.3268     466.7853    424.40243    512.50014    36341.856 
   75200     293.1463   -1433.4827    470.09581    362.18811     210.3285    36341.856 
   75300    299.82832   -1386.0742    473.66427    443.38037    552.06293    36341.856 
   75400    306.52114   -1393.4987    467.77368     460.3295    546.25873    36341.856 
   75500    314.27076   -1401.5095    480.92695    500.51495    424.75578    36341.856 
   75600    295.39466   -1381.5644    485.00159    439.17896    190.62795    36341.856 
   75700    306.31786   -1409.1477    480.53454    456.52215    303.90307    36341.856 
   75800    291.26733   -1420.5673    454.25228    350.76344   -83.517196    36341.856 
   75900    300.58151   -1365.8763    478.89552    472.21542    138.86289    36341.856 
   76000    298.58492    -1389.354     480.7016     441.5154    160.44507    36341.856 
   76100    308.35362   -1418.0934    502.34399     478.5914    819.88988    36341.856 
   76200    301.34751   -1409.9793    484.05078    436.73139   -5.3028621    36341.856 
   76300    301.71474   -1397.3249    463.27579    430.27143   -92.149327    36341.856 
   76400    295.36983   -1419.9954    467.42035     383.0545   -351.14836    36341.856 
   76500    296.91863    -1440.518    483.46813    385.58317    36.607945    36341.856 
   76600    297.29616   -1441.2782    466.95562    370.01763     76.99444    36341.856 
   76700     288.3775   -1426.9165    474.34345      351.438    293.62329    36341.856 
   76800    293.50277    -1408.528    489.32862    407.98753    -264.8329    36341.856 
   76900    297.82109   -1396.1049    504.82031    455.42928   -94.332948    36341.856 
   77000    289.82059   -1408.2711    454.62701    356.89238   -737.77801    36341.856 
   77100    303.45523   -1426.0941    475.51523    421.61193   -913.40266    36341.856 
   77200    299.53072   -1437.0565    476.68461    394.07271   -549.67884    36341.856 
   77300    297.19005   -1452.2394    464.44226    356.06327   -1263.1111    36341.856 
   77400    305.05203   -1453.0489      442.822    369.18445   -553.27793    36341.856 
   77500    298.70519   -1489.2945    434.62883    296.04598   -645.78002    36341.856 
   77600    292.06079   -1436.9605    466.90549    350.61146    -1159.205    36341.856 
   77700    300.00044   -1479.6753    457.78664    334.68002   -534.40114    36341.856 
   77800     313.0444   -1491.3291    460.35691     384.5798    220.95743    36341.856 
   77900    307.68964   -1502.4926    445.85219    334.69798    -517.8853    36341.856 
   78000    302.06959   -1520.4714    466.52341    311.97707   0.77316096    36341.856 
   78100    295.45139   -1488.9952     460.0817    307.08489    -340.5565    36341.856 
   78200     304.6479    -1432.443    472.07069    417.21161   -53.216327    36341.856 
   78300    292.71342   -1418.0693    480.63541    386.18372   -56.417982    36341.856 
   78400    310.30072   -1447.8741    484.15798    439.42921    461.87985    36341.856 
   78500    293.42935   -1473.3006    478.70384    332.25819     36.97959    36341.856 
   78600    296.59292   -1462.5808    469.91091    348.49036   -110.15963    36341.856 
   78700    309.22431   -1445.1929    472.66406    425.74914     475.7013    36341.856 
   78800    301.31966   -1450.0495    506.71769    419.20217    215.24663    36341.856 
   78900    295.07763   -1415.4512    475.13506    393.99214    314.56341    36341.856 
   79000    286.05069   -1386.7626    494.47243    401.19928    224.12127    36341.856 
   79100     305.1645   -1419.1439    486.71901     447.4951    37.525294    36341.856 
   79200    303.70547   -1399.7128    473.97977    447.58933   -42.555545    36341.856 
   79300    283.90951   -1439.3207    482.82523    327.31177      20.0249    36341.856 
   79400    295.49071    -1450.552     485.5331    371.15722     -54.6859    36341.856 
   79500    302.69554   -1398.9408    467.51558    437.33036     102.0429    36341.856 
   79600    295.44999   -1423.8835    493.97047    406.07895    387.73934    36341.856 
   79700    290.73102   -1402.0389    463.12208     375.7365    55.606362    36341.856 
   79800    305.57539   -1373.8213    483.65094    491.60755     46.91834    36341.856 
   79900    299.72135   -1386.4078    475.14463    444.04348    228.38934    36341.856 
   80000    291.37454   -1411.1755     477.5876    383.97536    212.54664    36341.856 
   80100    302.61951   -1411.1288    469.81458    427.09757    233.11484    36341.856 
   80200    299.47192   -1429.0839    477.45222    402.54701    481.51517    36341.856 
   80300     292.4534   -1415.5085    473.49176    380.42501     265.7351    36341.856 
   80400    295.73031   -1468.1972    459.90524    328.96766    187.04549    36341.856 
   80500    307.58187   -1451.7666    456.91058    395.99499    106.27432    36341.856 
   80600    294.40772   -1440.2363    469.53865    360.58135    252.12652    36341.856 
   80700    305.43319    -1427.934    496.14774    449.34869    765.71935    36341.856 
   80800    301.63858   -1417.9329    481.34939    427.39259     731.8628    36341.856 
   80900    299.44567   -1448.8738    468.59037    373.77659    525.75881    36341.856 
   81000    297.59676   -1479.3192    488.44258    354.82286    671.95077    36341.856 
   81100     310.3484    -1467.797    472.37754    407.94148    492.26169    36341.856 
   81200    311.05202   -1466.0861    468.99117    409.44776    186.97183    36341.856 
   81300    289.28679   -1453.8053    464.54519    318.86259     143.6866    36341.856 
   81400    311.70043   -1472.3326    441.03397    378.17605    227.39196    36341.856 
   81500    305.98091   -1454.3181    478.53664    407.83026    439.53112    36341.856 
   81600    290.83927   -1435.3555    466.40983    346.19713    98.102181    36341.856 
   81700     305.9748   -1410.5975    501.48993    474.47647   -42.269218    36341.856 
   81800    295.60976   -1434.0515    498.24111    400.90412    164.19608    36341.856 
   81900    310.63225    -1424.394    471.71083    451.96139   -278.84677    36341.856 
   82000    309.31748   -1466.1671    467.34336    399.87559    -952.1871    36341.856 
   82100    299.46626   -1467.0018    486.59254    373.74387   -424.53315    36341.856 
   82200    303.89024   -1484.5179    457.26022    346.90023   -22.523323    36341.856 
   82300    289.20935   -1501.1079    464.36446    271.02906   -238.28647    36341.856 
   82400    299.25814   -1474.3083    481.78749    360.69125   -535.75679    36341.856 
   82500    300.26006   -1439.9236    450.16012     367.9791   -574.05134    36341.856 
   82600    306.26689   -1501.0511    449.31386    333.16758   -317.61543    36341.856 
   82700      289.065   -1499.7904    473.49208    280.82145   -377.28662    36341.856 
   82800    307.95112   -1482.5787    458.49319    368.43519   -359.39158    36341.856 
   82900    293.37898   -1435.5697    469.55154    360.60904   -60.862026    36341.856 
   83000    296.90061   -1443.8439    471.91118    370.61888    304.84564    36341.856 
   83100    303.16142   -1450.0117    511.67789    432.52842   -349.88571    36341.856 
   83200    296.85667   -1445.0884    468.14996    365.41441    48.503092    36341.856 
   83300    309.52717   -1438.7911    483.15605    444.01237   -194.89294    36341.856 
   83400    299.79936   -1474.8607    476.70772    357.50645    199.05709    36341.856 
   83500    302.64244   -1460.3482    471.27899    379.44625    177.87871    36341.856 
   83600    288.39325   -1471.2507    487.80634     320.6378    508.92928    36341.856 
   83700     298.5064   -1459.4353    467.91418    358.29163    291.21712    36341.856 
   83800    299.73472   -1455.5311    463.31533    363.15134   -160.33462    36341.856 
   83900    295.79135   -1461.3056    489.31293    365.54291    683.89957    36341.856 
   84000     304.5557   -1450.7279    483.81594    410.25508     150.3498    36341.856 
   84100    305.68148   -1469.2496    489.05571    402.06381   -479.43148    36341.856 
   84200    296.58672   -1491.2894    470.08972    319.93248   -76.666211    36341.856 
   84300    300.08877   -1452.2901    467.60641    372.28441   -31.679191    36341.856 
   84400    299.24873   -1478.0574    489.60913    364.72122    17.147055    36341.856 
   84500    312.57455   -1468.2599    483.79776    428.96522    56.471116    36341.856 
   84600    290.26335   -1438.0156    481.76469    356.28766   -314.35974    36341.856 
   84700    301.39299   -1463.6051    448.57574    347.83622     104.4319    36341.856 
   84800    295.83499   -1448.1134    493.01188    382.63139     157.3468    36341.856 
   84900    291.97251   -1489.1661    474.73882    305.83993    -265.9033    36341.856 
   85000    304.08024   -1485.5904    466.95728    356.38393    417.88071    36341.856 
   85100    304.18524   -1476.7149    470.72986    369.50686    358.42168    36341.856 
   85200    300.42541   -1498.6503    474.65664    334.49669    340.89021    36341.856 
   85300    286.79577    -1485.537    466.35644      277.678    495.35275    36341.856 
   85400    305.48011    -1480.134    497.87724     399.0903    420.45032    36341.856 
   85500    295.40209   -1483.3353    488.58681    341.02695    905.32602    36341.856 
   85600     308.7375   -1456.3643    472.24952    411.96186   -241.60687    36341.856 
   85700    298.01603     -1428.92    476.85307     395.5284   -172.30352    36341.856 
   85800    305.14897   -1484.3063    460.10912     355.6525   -42.627228    36341.856 
   85900    296.00963   -1437.1566    507.30716    408.67321    272.86012    36341.856 
   86000    292.66154   -1466.8283    465.53382    322.08846    54.531867    36341.856 
   86100    300.45478    -1451.836     485.6053    392.39248     400.7446    36341.856 
   86200    298.58168   -1470.0111    492.52227    372.66434    241.69248    36341.856 
   86300      297.362   -1505.1764      449.051    288.51246    335.30398    36341.856 
   86400    312.65693   -1518.6209    494.74515    389.92414    275.88652    36341.856 
   86500    297.48919     -1503.17    486.48822    328.53133   -371.26932    36341.856 
   86600    294.24688    -1480.769    481.35759    331.14028    50.116848    36341.856 
   86700    297.98203   -1454.6157    492.10876    384.93468   -398.20088    36341.856 
   86800    303.24714   -1469.9608    478.49231    379.78138   -527.91387    36341.856 
   86900    300.79155   -1489.4207    467.32849    338.05372   -614.60221    36341.856 
   87000    297.30369   -1453.7324    474.20385    364.84567   -785.74099    36341.856 
   87100    295.51376   -1433.2486    495.62933    398.66108   -187.53898    36341.856 
   87200    293.88909   -1468.3068    474.10066    334.72765    233.16274    36341.856 
   87300    306.36887   -1437.8871    503.23943    450.71834    589.31476    36341.856 
[...]
  984700    304.76259   -1516.3241    487.70944    349.48787   -140.95312    36341.856 
  984800    290.66201   -1513.7396    497.71819    298.31988   -464.81463    36341.856 
  984900    298.63794   -1515.1623    519.96663    355.21185    321.06616    36341.856 
  985000    300.52018   -1549.5193    475.55875    284.95828    760.75238    36341.856 
  985100    289.65658   -1512.1795    504.03015     301.6455    409.85292    36341.856 
  985200    294.62202   -1499.1562     528.8307     361.9225    122.04107    36341.856 
  985300    311.52963   -1509.1641    499.80343    399.34172    176.47946    36341.856 
  985400    298.77805   -1489.6837    508.78361    370.14106   -201.83737    36341.856 
  985500    304.91727   -1474.7398    489.00311    393.06528   -663.09158    36341.856 
  985600    295.73559    -1483.503    510.30655    364.08705   -621.04982    36341.856 
  985700     288.6985   -1506.0443    501.55544    300.97367   -242.89021    36341.856 
  985800    309.88558   -1496.6937    478.70443     383.2789    216.25881    36341.856 
  985900      299.444    -1479.251      500.142    374.94347    125.94899    36341.856 
  986000    294.01701   -1447.8687    514.69036    396.33396    489.62033    36341.856 
  986100    315.16493   -1454.3501     474.9065     445.6972    30.797321    36341.856 
  986200     293.5375    -1499.566    472.43975    300.21768   -442.33615    36341.856 
  986300    292.43601   -1470.4632    496.82906    348.72897   -410.32425    36341.856 
  986400    311.11625   -1523.8216     486.1631    369.17461   -208.09695    36341.856 
  986500    309.67482   -1529.9432    480.73766    351.10962    54.627587    36341.856 
  986600    306.43735   -1502.9963    487.97471    370.65409    89.402629    36341.856 
  986700    308.46223   -1522.0834    519.75599    392.50451    324.82066    36341.856 
  986800    294.11335   -1478.1891    485.71985    337.47862    341.88598    36341.856 
  986900    295.17319   -1491.0474    516.54865    360.24158    254.94643    36341.856 
  987000    296.22716   -1456.9714    479.76602    362.30094    168.22348    36341.856 
  987100    290.39494   -1444.7797    495.24428    363.59827   -218.39475    36341.856 
  987200    307.31884   -1478.1929    502.39761    413.86638    67.673428    36341.856 
  987300    302.26665   -1452.5388    481.92209    396.19946    209.50866    36341.856 
  987400    296.88396   -1438.8173    505.29224    408.95119    764.27498    36341.856 
  987500    301.27679   -1456.3024    504.16833    410.20613    464.83016    36341.856 
  987600    292.91296   -1468.7189    505.89948    361.70043     204.7002    36341.856 
  987700    311.27531   -1507.4525    503.14292    403.24278    56.176158    36341.856 
  987800    300.58173   -1468.2346    503.60744    394.57006    67.098294    36341.856 
  987900    291.39217   -1493.9301     511.9513    335.66424    342.18021    36341.856 
  988000    300.00702   -1466.6919    464.75964    354.66615     481.1594    36341.856 
  988100    299.15446   -1517.2252    508.61111    344.12913   -7.3460381    36341.856 
  988200    299.10332   -1484.5992    480.44866    348.36149    334.69366    36341.856 
  988300    304.19038   -1474.7702    502.11303    402.85791    402.84601    36341.856 
  988400    288.43873   -1507.1975    497.20745     294.2978    851.73905    36341.856 
  988500     290.4525   -1478.1563    514.86172    350.09933    443.37561    36341.856 
  988600    301.02142   -1448.7003    501.05063    413.53578    486.09689    36341.856 
  988700    299.04196   -1448.2883    491.03823    394.98446    239.85328    36341.856 
  988800    299.94636   -1453.8026    513.06425    415.58576    -519.2857    36341.856 
  988900    294.90185   -1482.3946     507.7793    358.89803   -168.51633    36341.856 
  989000    304.61515   -1483.9489    496.80223     390.2892    32.851965    36341.856 
  989100    302.64912   -1489.6037    485.97893    364.92089    125.00888    36341.856 
  989200    304.33061   -1480.2158    507.47112     403.4045   -44.946956    36341.856 
  989300    298.75534    -1498.831    523.93452    376.04191    34.296629    36341.856 
  989400    293.65044   -1505.6144    483.19227    305.43255    456.20512    36341.856 
  989500    300.21472   -1469.1742     505.5759    393.93931    273.17017    36341.856 
  989600    296.88266   -1434.0861    513.36908    421.75342   -608.38699    36341.856 
  989700    303.97404   -1414.3035    516.13795    476.37126   -211.90639    36341.856 
  989800    295.67302   -1419.2333    511.29734    429.06456    -216.5904    36341.856 
  989900    294.37086   -1396.4483    506.38459    441.04858    157.82052    36341.856 
  990000    303.90791   -1458.4279    517.49619    433.30609   -138.33548    36341.856 
  990100    292.74498   -1491.2171    498.75344    331.29661    253.12654    36341.856 
  990200    305.62478   -1466.0233     496.9294    412.90736    325.77394    36341.856 
  990300    294.39305   -1461.4784    501.06513    370.79937    253.35429    36341.856 
  990400     301.6337   -1480.0853     498.6398    382.50852    -156.9419    36341.856 
  990500    289.27388   -1460.7024    518.24588    365.60778    124.06007    36341.856 
  990600    302.67764   -1493.4469    495.10119    370.32895    18.318411    36341.856 
  990700    307.40778   -1494.3076    490.97974    386.73598   -602.49719    36341.856 
  990800    300.73757    -1512.599    503.89541     351.1983   -610.25283    36341.856 
  990900    304.54479   -1480.3115    482.45508    379.26133   -357.85122    36341.856 
  991000    300.01484   -1487.2533     508.2185    377.59892     143.1957    36341.856 
  991100    308.59119    -1501.544    479.74781    373.61888   -271.09533    36341.856 
  991200    301.58994   -1503.5307    517.94215    378.16759    67.541014    36341.856 
  991300    303.33094   -1450.2225    495.49411    416.90043    49.899481    36341.856 
  991400    295.21769   -1504.1654    488.72819    319.50439   -262.71573    36341.856 
  991500    293.04062   -1503.9902    496.74755    317.85447   -153.79287    36341.856 
  991600    294.64037    -1510.585    471.71814    293.46408   -8.2460135    36341.856 
  991700    299.72067   -1491.9602    513.71073    377.05409   -127.16564    36341.856 
  991800    301.97074   -1479.2392    488.78757    375.02652   -280.01757    36341.856 
  991900    290.51003   -1466.5597    511.53476    358.62916   -272.74238    36341.856 
  992000    294.05796   -1466.8729    493.85851    356.68306    162.85475    36341.856 
  992100     299.3221   -1503.8942    498.27933    347.88644    37.652759    36341.856 
  992200    300.72187   -1466.7515    520.90717    413.98656   -247.79716    36341.856 
  992300    293.26726   -1454.7568     509.0421    380.40722    -311.2257    36341.856 
  992400    292.87974   -1467.4791    521.57492    378.46547   -760.77858    36341.856 
  992500    303.03733   -1473.0495    502.45752    399.70919   -159.06265    36341.856 
  992600    294.32354   -1483.1263    490.70718    338.47923    29.699133    36341.856 
  992700    287.92412    -1508.956    488.66146    281.66632    166.38134    36341.856 
  992800    302.24719    -1488.232    482.72931    361.22553    37.762293    36341.856 
  992900    303.76098   -1524.1724     501.4992    350.90018    -89.70924    36341.856 
  993000    300.22308   -1506.0219    517.34995    368.90346    16.516393    36341.856 
  993100    301.20183   -1500.8821    492.48442    353.60353   -9.1718389    36341.856 
  993200    316.60255   -1506.9605     505.8481    430.52911    160.11686    36341.856 
  993300    300.66958    -1530.064    516.41505    345.94543   -70.718147    36341.856 
  993400    296.56859   -1463.0723    507.60112    385.57905   -386.47304    36341.856 
  993500    299.57221   -1488.4236    524.59414     390.8028   -268.90685    36341.856 
  993600    300.57344   -1468.6337    481.47574    372.00171   -270.54694    36341.856 
  993700    293.92496   -1462.6242    477.49867    343.97045   -115.22674    36341.856 
  993800    293.17377   -1458.3152    521.13449    388.51852   -394.37591    36341.856 
  993900    301.07044   -1506.0654    497.63184     352.9735    48.468224    36341.856 
  994000    295.19256   -1472.5648    490.38515    352.64825   -177.71972    36341.856 
  994100    293.13751   -1492.8857    502.63878    335.28827    25.563278    36341.856 
  994200    290.74763   -1512.7552    462.65327    264.62653    313.18466    36341.856 
  994300    301.02138   -1490.8374     499.1072    369.45497    206.31097    36341.856 
  994400    298.21541   -1504.4902    511.38781    355.39452   -393.64376    36341.856 
  994500     293.4176   -1512.4904    492.77605    307.08745    140.16586    36341.856 
  994600    310.58021   -1483.5138     551.2647    472.16009   -137.11447    36341.856 
  994700    304.06995    -1481.155    491.62717     385.4427   -118.91605    36341.856 
  994800    296.26476   -1495.3317    480.48367     324.8283    232.97391    36341.856 
  994900    304.87773   -1490.5691    518.01478    406.06883    411.96076    36341.856 
  995000    296.68372   -1479.0628    499.66394    362.17191     481.2822    36341.856 
  995100    293.83284   -1499.6652     502.9688    331.98302   -183.43083    36341.856 
  995200      294.245   -1498.2651    507.12517    339.40326    199.95861    36341.856 
  995300    288.34462    -1502.783    501.09244    302.17173   -107.56501    36341.856 
  995400    299.60651   -1467.1416     510.6393    398.28501      -38.018    36341.856 
  995500    295.03314   -1454.3118    482.77363    362.56888   -216.87897    36341.856 
  995600    303.64731   -1474.2164    505.62675    404.46975    -49.77049    36341.856 
  995700    301.71605   -1448.0541    512.49439    428.76673   -187.85415    36341.856 
  995800    300.57627   -1462.2935    507.30427    404.18329   -10.341483    36341.856 
  995900    299.87192    -1481.828    521.54841    395.70786   -227.49351    36341.856 
  996000    300.43975   -1463.0444    507.73758    403.24829    342.99031    36341.856 
  996100    298.34117   -1478.7266    497.60068    367.93968    156.23395    36341.856 
  996200    292.44395   -1461.6863    493.93895    354.65165    236.00827    36341.856 
  996300    308.10358   -1477.8654    512.14668    427.49146   -233.54336    36341.856 
  996400    305.98011   -1474.1634    480.53195    389.97661   -143.40428    36341.856 
  996500    295.48532   -1488.2006    500.14409    348.09523    118.07051    36341.856 
  996600    296.23237   -1477.3622    490.47065    352.63826   -287.31592    36341.856 
  996700    303.56938   -1525.6191    512.15128    359.23917    33.969711    36341.856 
  996800    304.62605   -1461.0636    512.21831    428.63985   -73.250512    36341.856 
  996900     294.5053   -1489.1469    508.19643    350.76975    75.330983    36341.856 
  997000    315.08323   -1507.4845    490.81889    408.10575    370.14642    36341.856 
  997100    294.10425   -1495.3304    505.09676    339.67304    139.08115    36341.856 
  997200    298.17507   -1537.2084    479.52364    290.62971    -17.19382    36341.856 
  997300    286.53507    -1570.277    518.33485    243.73756   -379.12993    36341.856 
  997400    298.66146   -1565.5555     490.4279    275.38634   -130.32094    36341.856 
  997500    304.73033   -1564.6885    478.83632    292.10453   -2.2056246    36341.856 
  997600    299.77736   -1573.3187    504.00893    286.25008   -259.43355    36341.856 
  997700    292.36524   -1568.3692    483.87154    237.54552    410.45999    36341.856 
  997800    297.50713   -1552.7198    522.43643    315.01083    49.757025    36341.856 
  997900    295.51434   -1569.4161    500.81042    267.67737    28.381241    36341.856 
  998000    297.32372    -1550.149    485.81266    280.12848   -165.65996    36341.856 
  998100    287.42322   -1522.7755    488.49007    265.41047   -535.85248    36341.856 
  998200    295.21533   -1524.7324    507.75221     317.9507   -449.36632    36341.856 
  998300    286.36118   -1490.4816    511.11268    315.52451   -895.70892    36341.856 
  998400    300.01091   -1518.2272    484.59881    322.98764   -468.64222    36341.856 
  998500    306.58245   -1527.5902    499.13789    357.87948   -106.60877    36341.856 
  998600    301.49297   -1558.0067    476.09906    281.41002   -130.62015    36341.856 
  998700    299.20243   -1533.1127    515.73588    335.58332   -194.60702    36341.856 
  998800    290.75563   -1547.7927    467.25588    234.22784   -916.97822    36341.856 
  998900    301.07369   -1518.9058    506.35465    348.87061   -808.98825    36341.856 
  999000    299.80565   -1549.0538    476.52599    283.15999   -187.35902    36341.856 
  999100    305.23756   -1520.7815    506.84301     366.3118    -49.66043    36341.856 
  999200    303.68538   -1530.0131    524.20559    367.42404    742.32467    36341.856 
  999300    297.91888   -1548.6001    486.15784    284.71376    1335.8463    36341.856 
  999400    300.82538   -1548.3508    523.46919    335.41736     564.6997    36341.856 
  999500    300.35113   -1555.6075    489.67568    292.22266    490.67819    36341.856 
  999600    310.48347   -1537.6936    488.29131    354.56943    223.99772    36341.856 
  999700    303.74998   -1571.3885    502.81036    304.94547    91.673165    36341.856 
  999800    302.94299   -1550.1601    490.50628    310.22065   -115.45832    36341.856 
  999900    299.61752   -1536.4618    500.07194    318.44726   -615.20777    36341.856 
 1000000    311.74309   -1545.3058    516.34198     380.7038   -10.691038    36341.856 
 1000100    289.32448   -1488.8243    513.47997    332.94885   -413.45179    36341.856 
 1000200    315.87365   -1513.3174    516.24821    431.27637   -546.70918    36341.856 
 1000300     302.3353    -1489.499    506.37785    384.00545   -47.097632    36341.856 
 1000400    295.84688   -1529.6407     538.5014    346.64742    -140.0989    36341.856 
 1000500    295.70734   -1517.1758    500.05488    320.03483   -361.96168    36341.856 
 1000600    303.47792   -1509.5165    505.29653    368.07345   -65.756076    36341.856 
 1000700    303.97466   -1559.0862    514.51385    329.96725   -331.36403    36341.856 
 1000800    295.55974   -1506.6074    466.03912    295.92001   -616.60574    36341.856 
 1000900    300.05447   -1475.3073    509.74603    391.25172   -597.00484    36341.856 
 1001000    303.86446   -1506.3111    481.96381    349.69405   -993.00183    36341.856 
 1001100    295.34482    -1494.643    485.28494    326.15837   -220.10276    36341.856 
 1001200     305.4637   -1520.5163    523.51852    384.27508   -503.64574    36341.856 
 1001300     294.5487   -1511.3638    483.57766    304.13028   -360.14211    36341.856 
 1001400    301.37748   -1527.8488    516.06791    351.01456    -559.8261    36341.856 
 1001500    296.08063   -1555.6094    510.09741    293.33175   -229.24655    36341.856 
 1001600    303.62249   -1570.1346    504.94129    307.75382   -506.80718    36341.856 
 1001700    308.15235   -1608.7977    476.00701    260.63999   -393.44832    36341.856 
 1001800    301.41719      -1569.4    501.21587    294.79088   -561.76532    36341.856 
 1001900    289.34039   -1562.9403    517.55883    262.98359   -727.78151    36341.856 
 1002000    300.70249   -1564.2846    501.56469    297.02338   -652.62416    36341.856 
 1002100    293.85459   -1558.1165    504.02725     274.6885   -168.75962    36341.856 
 1002200    308.13075   -1558.4879     491.9961    326.84116   -153.27041    36341.856 
 1002300    301.91222   -1532.6787    503.78888     336.3237   -260.81835    36341.856 
 1002400    291.80941   -1539.8058    506.20309    285.92706   -181.28135    36341.856 
 1002500    307.84461   -1522.4207    479.44183    349.06027    555.02628    36341.856 
 1002600    303.21311   -1545.6556    519.13147     344.5719    506.81392    36341.856 
 1002700    300.20486   -1500.3449    497.81431    354.96238    886.33281    36341.856 
 1002800    303.23346   -1508.7982     552.7561     415.1459     56.63089    36341.856 
 1002900    301.16413   -1512.0618    503.89865    353.66758   -163.22959    36341.856 
 1003000    304.70564   -1507.0973    485.62489    356.37262    143.65065    36341.856 
 1003100    301.40814   -1520.0841    485.35156    328.20155    191.83992    36341.856 
 1003200    304.39788   -1516.9095    546.31549    405.85942   -189.39803    36341.856 
 1003300     295.7443   -1512.9964    517.14806    341.47451   -304.55182    36341.856 
 1003400     298.7827    -1516.318    496.75603    331.50022   -199.62344    36341.856 
 1003500    299.79795   -1549.3556    514.78556    321.08294   -576.51125    36341.856 
 1003600    288.77814   -1516.4678    521.35081    310.70565   -444.52907    36341.856 
 1003700    323.13634   -1547.8303    498.86256    412.21884   -379.25894    36341.856 
 1003800    299.47942   -1515.3324    496.58278    335.46304   -669.73793    36341.856 
 1003900    287.85542   -1486.8585    517.08397    331.87571   -512.88977    36341.856 
 1004000    303.59721   -1535.4357    505.39502    342.79222    110.06015    36341.856 
 1004100     297.4835    -1479.669     543.9783    409.49667    411.59981    36341.856 
 1004200     303.2539   -1505.8215    499.92024    365.37915    671.15656    36341.856 
 1004300    300.95238    -1531.477    526.39275    355.78896    457.92346    36341.856 
 1004400    305.86657   -1524.9024    519.80584     377.9981    15.277635    36341.856 
 1004500    295.24202   -1580.9114    515.79765    269.93787   -176.82253    36341.856 
 1004600    299.69338    -1531.081     471.1991    295.29822   -71.422857    36341.856 
 1004700     296.0952   -1524.4467    523.41617    337.87901    223.41489    36341.856 
 1004800    307.54755   -1548.2521    519.98379    362.42754    262.57672    36341.856 
 1004900    311.76078   -1566.1888    493.38135    336.94012    613.00285    36341.856 
 1005000    299.15753   -1552.6081    520.18214    320.33121    756.13284    36341.856 
 1005100    306.77267   -1503.8802    517.37072    400.68247    577.98239    36341.856 
 1005200      318.482   -1549.9315    507.85554    398.06427   -88.862392    36341.856 
 1005300    295.50003   -1535.3592    502.57782    303.43689   -372.87044    36341.856 
 1005343    307.46596   -1553.9455    481.54402    317.92546   -247.67925    36341.856 
Loop time of 599.147 on 32 procs for 1000000 steps with 1518 atoms

Performance: 144.205 ns/day, 0.166 hours/ns, 1669.041 timesteps/s
100.0% CPU use with 32 MPI tasks x no OpenMP threads

MPI task timing breakdown:
Section |  min time  |  avg time  |  max time  |%varavg| %total
---------------------------------------------------------------
Pair    | 252.31     | 281.34     | 312.07     |  80.4 | 46.96
Bond    | 1.4289     | 1.6026     | 1.8133     |   6.8 |  0.27
Neigh   | 38.734     | 38.793     | 38.85      |   0.7 |  6.47
Comm    | 233.9      | 264.54     | 293.52     |  83.2 | 44.15
Output  | 0.39547    | 0.41324    | 0.84614    |  12.1 |  0.07
Modify  | 9.1613     | 9.3007     | 9.4842     |   2.9 |  1.55
Other   |            | 3.156      |            |       |  0.53

Nlocal:        47.4375 ave          78 max          14 min
Histogram: 2 4 1 4 3 6 2 4 2 4
Nghost:        2044.53 ave        2179 max        1919 min
Histogram: 2 6 4 2 1 2 6 4 4 1
Neighs:        5525.53 ave       10048 max         764 min
Histogram: 2 2 6 5 2 2 3 2 2 6

Total # of neighbors = 176817
Ave neighs/atom = 116.48024
Ave special neighs/atom = 2.0382082
Neighbor list builds = 49586
Dangerous builds = 1

# Output the system volume
variable v equal vol
print 'The system volume is $v'
The system volume is 36341.8563188419

# Outputs
variable A equal xhi-xlo
variable B equal yhi-ylo
variable C equal zhi-zlo
variable D equal xy
variable E equal xz
variable F equal yz
print 'Lattice vectors'
Lattice vectors
print '$A 0 0'
33.1234604928558 0 0
print '$D $B 0'
0 33.1234604928558 0
print '$E $F $C'
0 0 33.1234604928558
Total wall time: 0:10:04
