LAMMPS (29 Sep 2021 - Update 1)
Reading data file ...
  triclinic box = (0.0000000 0.0000000 0.0000000) to (15.000000 15.000000 15.000000) with tilt (0.0000000 0.0000000 0.0000000)
  2 by 4 by 4 MPI processor grid
  reading atoms ...
  1507 atoms
  scanning bonds ...
  3 = max bonds/atom
  scanning angles ...
  6 = max angles/atom
  scanning dihedrals ...
  6 = max dihedrals/atom
  scanning impropers ...
  1 = max impropers/atom
  reading bonds ...
  1006 bonds
  reading angles ...
  509 angles
  reading dihedrals ...
  6 dihedrals
  reading impropers ...
  1 impropers
Finding 1-2 1-3 1-4 neighbors ...
  special bond factors lj:    0        0        1       
  special bond factors coul:  0        0        1       
     4 = max # of 1-2 neighbors
     3 = max # of 1-3 neighbors
     6 = max # of special neighbors
  special bonds CPU = 0.002 seconds
  read_data CPU = 0.017 seconds
WARNING: Using 'neigh_modify every 1 delay 0 check yes' setting during minimization (../min.cpp:188)
Neighbor list info ...
  update every 1 steps, delay 0 steps, check yes
  max neighbors/atom: 10000, page size: 100000
  master list distance cutoff = 13
  ghost atom cutoff = 13
  binsize = 6.5, bins = 3 3 3
  3 neighbor lists, perpetual/occasional/extra = 3 0 0
  (1) pair hbond/dreiding/lj, perpetual, skip from (3)
      attributes: full, newton on
      pair build: skip
      stencil: none
      bin: none
  (2) pair lj/cut, perpetual, half/full from (3)
      attributes: half, newton on
      pair build: halffull/newton
      stencil: none
      bin: none
  (3) neighbor class addition, perpetual
      attributes: full, newton on
      pair build: full/bin
      stencil: full/bin/3d
      bin: standard
Setting up cg style minimization ...
  Unit style    : real
  Current step  : 0
WARNING: Energy due to 1 extra global DOFs will be included in minimizer energies
Per MPI rank memory allocation (min/avg/max) = 13.14 | 13.48 | 13.82 Mbytes
Step Temp E_pair E_mol TotEng Press Volume 
       0            0 8.1748524e+18    284.27733 8.1748524e+18 6.6433976e+20         3375 
    4522            0    -832.2484    39.464963   -792.78344   -110.55717    39069.705 
Loop time of 4.56793 on 32 procs for 4522 steps with 1507 atoms

100.0% CPU use with 32 MPI tasks x no OpenMP threads

Minimization stats:
  Stopping criterion = energy tolerance
  Energy initial, next-to-last, final = 
    8.17485236031395e+18  -792.188305849145  -792.262867274072
  Force two-norm initial, final = 2.2064972e+21 113.38686
  Force max component initial, final = 1.5140687e+21 84.297105
  Final line search alpha, max atom move = 1.6679933e-05 0.0014060701
  Iterations, force evaluations = 4522 4527

MPI task timing breakdown:
Section |  min time  |  avg time  |  max time  |%varavg| %total
---------------------------------------------------------------
Pair    | 1.2865     | 2.3935     | 3.9237     |  43.9 | 52.40
Bond    | 0.005722   | 0.0092374  | 0.013215   |   2.2 |  0.20
Neigh   | 0.095685   | 0.096433   | 0.096904   |   0.1 |  2.11
Comm    | 0.23117    | 1.7618     | 2.8657     |  51.1 | 38.57
Output  | 0          | 0          | 0          |   0.0 |  0.00
Modify  | 0          | 0          | 0          |   0.0 |  0.00
Other   |            | 0.3069     |            |       |  6.72

Nlocal:        47.0938 ave          72 max          31 min
Histogram: 5 4 3 6 4 2 4 1 2 1
Nghost:        1900.34 ave        1932 max        1877 min
Histogram: 3 1 6 7 4 3 4 2 1 1
Neighs:        4821.34 ave        8610 max        2836 min
Histogram: 5 4 9 3 4 3 2 0 1 1

Total # of neighbors = 154283
Ave neighs/atom = 102.37757
Ave special neighs/atom = 2.0106171
Neighbor list builds = 89
Dangerous builds = 0
1500 atoms in group WAT
7 atoms in group MOL
Neighbor list info ...
  update every 2 steps, delay 10 steps, check yes
  max neighbors/atom: 10000, page size: 100000
  master list distance cutoff = 13
  ghost atom cutoff = 13
  binsize = 6.5, bins = 6 6 6
  4 neighbor lists, perpetual/occasional/extra = 3 1 0
  (1) pair hbond/dreiding/lj, perpetual, skip from (4)
      attributes: full, newton on
      pair build: skip
      stencil: none
      bin: none
  (2) pair lj/cut, perpetual, half/full from (4)
      attributes: half, newton on
      pair build: halffull/newton
      stencil: none
      bin: none
  (3) compute group/group, occasional, copy from (2)
      attributes: half, newton on
      pair build: copy
      stencil: none
      bin: none
  (4) neighbor class addition, perpetual
      attributes: full, newton on
      pair build: full/bin
      stencil: full/bin/3d
      bin: standard
Setting up Verlet run ...
  Unit style    : real
  Current step  : 4522
  Time step     : 1
Per MPI rank memory allocation (min/avg/max) = 11.99 | 12.07 | 12.55 Mbytes
Step Temp E_pair E_mol TotEng Press Volume 
    4522          300    -832.2484    39.464963    553.94654    1465.1418    39069.705 
    4600    306.72416    -1005.419    232.90168    604.39805    1552.4624    39069.705 
    4700    296.39715   -1021.9521    197.52536    506.12969    824.23187    39069.705 
    4800      306.075   -1053.9744    166.91029    486.93716    985.13371    39069.705 
    4900    297.64912   -1016.3154    199.28917    519.15045    197.70402    39069.705 
    5000    302.62627   -1035.9382    208.36367    530.94501    402.79348    39069.705 
    5100    303.21164   -1075.0823    193.98903     480.0541    225.02793    39069.705 
    5200    298.68618   -1073.7693     196.5658    463.62866    308.87433    39069.705 
    5300    296.18887   -1025.9082    209.78233    513.49558    246.53691    39069.705 
    5400    299.61848   -1010.5192    190.36273     524.8608    183.93991    39069.705 
    5500    292.49605   -1031.2131    199.11831    480.94917    142.65714    39069.705 
    5600    305.50357   -1097.7501    209.76202    483.44794    210.12794    39069.705 
    5700    293.58492   -1097.3691    204.57865    425.14157     432.2706    39069.705 
    5800    307.93102    -1091.925    212.00158    502.40976    572.31832    39069.705 
    5900    293.55126   -1097.0947    208.42722    429.11345    171.28237    39069.705 
    6000    291.66559   -1124.9138    194.18604    378.58821    643.81375    39069.705 
    6100    288.27545   -1086.1791    211.48847     419.4067    580.30878    39069.705 
    6200    305.96578   -1071.6802    212.39476    514.22551    436.96638    39069.705 
    6300    299.45721   -1062.2834    205.00013    487.01007    373.95951    39069.705 
    6400    298.37083   -1100.9336    225.90665    464.38954     557.6678    39069.705 
    6500    297.73826   -1067.2504    210.58832    479.91469    768.77444    39069.705 
    6600    304.93921   -1035.8961    224.58458     557.5911    650.15493    39069.705 
    6700    313.32129    -1054.849    210.75843    562.44003    526.45241    39069.705 
    6800    298.72693   -1054.0756     219.1353    506.07478    316.10444    39069.705 
    6900    306.94276   -1070.8934    215.43739    522.44073    229.08258    39069.705 
    7000    301.26008   -1067.1014    236.37718     521.6624    364.04954    39069.705 
    7100    298.78138   -1091.1011    204.68966    454.84803    309.05647    39069.705 
    7200    310.77677   -1076.8964    226.99308    545.20463    315.69178    39069.705 
    7300    307.88932   -1054.5845    232.90489    560.46634    294.06578    39069.705 
    7400    314.25043   -1082.6307    231.14739    559.21832    412.05683    39069.705 
    7500    302.68455   -1054.6515    219.25455    523.38425    287.35886    39069.705 
    7600    295.63755    -1103.971    238.46523    461.64079     12.92802    39069.705 
    7700    290.78892    -1112.744    234.74191    427.37844   -145.68462    39069.705 
    7800    307.99673   -1107.3308    234.89403    510.19135    88.665684    39069.705 
    7900    303.82645    -1094.961    227.28657    496.23281    385.44932    39069.705 
    8000    302.60874   -1100.4996    230.62118    488.56245    148.44909    39069.705 
    8100    285.68851   -1127.5396    230.19372    385.13844    340.67099    39069.705 
    8200    294.18321   -1141.9487    234.35896    413.02809    157.80536    39069.705 
    8300    296.01083   -1139.6719    221.41998    410.57029    144.51366    39069.705 
    8400    303.64657   -1159.4505    237.21431    440.86357    380.98078    39069.705 
    8500    292.31338   -1139.1341    243.44246    416.53234    628.51578    39069.705 
    8600    301.25379   -1185.0558    240.70036     408.0029    480.56508    39069.705 
    8700    309.93382     -1136.82    242.12545    496.62929    655.40026    39069.705 
    8800    292.39178   -1161.6049    240.00626    390.97732    76.098831    39069.705 
    8900    297.63464   -1106.9558    245.36004    474.51591    405.76233    39069.705 
    9000    303.76832   -1094.2402    248.86822    518.27438    512.55469    39069.705 
    9100    304.59477    -1071.135    248.17084    544.39224    583.68223    39069.705 
    9200    295.14086   -1116.6935    243.99647    452.21976    216.17024    39069.705 
    9300    291.37915   -1108.5474    243.99767    443.48038   -113.45213    39069.705 
    9400    296.62466   -1122.5604    240.77593    449.79328    261.91531    39069.705 
    9500    305.79745   -1131.0144    247.44219    489.18307    309.31317    39069.705 
    9600    296.85828    -1089.748    262.57278    505.45128    130.50947    39069.705 
    9700    302.69296   -1125.7305    249.62839    482.71688    569.95241    39069.705 
    9800    298.36092   -1132.0554    250.76383    458.08046    318.67489    39069.705 
    9900    306.44537   -1080.2443    261.73882    557.15837    662.86273    39069.705 
   10000    297.60975   -1137.1856    253.75779     452.5721    281.84534    39069.705 
   10100    297.53021   -1107.0374    252.01975    480.62523    133.64085    39069.705 
   10200    289.56013   -1097.2057    270.82303    473.48173    648.05344    39069.705 
   10300    291.14829   -1082.9058    250.49137    474.57935    401.24204    39069.705 
   10400    301.48993   -1108.8512    266.57429    511.14147    411.53106    39069.705 
   10500      317.755   -1110.4249    262.23637    578.24549       471.49    39069.705 
   10600    303.25663   -1102.3381    270.50198    529.51324    73.369472    39069.705 
   10700    288.70657   -1114.1629     268.6767     450.5464    181.53002    39069.705 
   10800    293.57732   -1110.1176    270.28952    478.06985    514.42895    39069.705 
   10900    312.36532   -1141.9949    253.14423    513.38847    220.49305    39069.705 
   11000    303.62673   -1108.7901    269.16411    523.38475    510.25312    39069.705 
   11100    301.43011   -1071.5841    262.78257     544.3484    281.86188    39069.705 
   11200    293.71144   -1098.9815    254.68621    474.20473    270.04838    39069.705 
   11300    302.41519   -1128.6081    262.65332    491.61724    126.56336    39069.705 
   11400    300.96464   -1157.9561    271.39065    464.49489    189.12838    39069.705 
   11500    304.62716   -1133.9274    262.01435    495.58872    188.91235    39069.705 
   11600    310.82467   -1141.1871    263.72103     517.8569    48.488843    39069.705 
   11700    290.56256   -1108.4877    283.13473    479.01145    156.92756    39069.705 
   11800    300.05432   -1140.3506    280.74944    487.37265    487.68929    39069.705 
   11900    304.10884   -1137.3598    265.12236    492.93756    499.85923    39069.705 
   12000     304.3383   -1147.3002    277.30447    496.20933     418.0552    39069.705 
   12100    314.68699   -1132.3133    280.79844    561.14646    786.95936    39069.705 
   12200    294.86241   -1155.9028    271.90554    439.66952    749.30011    39069.705 
   12300    303.97254   -1136.5367    266.03252     494.0589    615.97136    39069.705 
   12400    304.25919   -1175.9582    259.66806    449.55981    332.97978    39069.705 
   12500    297.03804   -1160.9614    279.64024    452.11234     486.3367    39069.705 
   12600    295.53219   -1145.2785    283.23014    464.62516    623.05891    39069.705 
   12700    304.52429   -1170.2442     265.1984    461.99418    433.87405    39069.705 
   12800    311.11332   -1162.3086    273.02841    507.33862    377.84067    39069.705 
   12900    296.58419   -1147.6761    286.88368    470.60362   -122.81711    39069.705 
   13000    295.78561   -1149.5611    266.81158    445.06169   -67.108719    39069.705 
   13100    303.54427   -1203.7144    279.53988     438.4661    231.97034    39069.705 
   13200    311.86861   -1202.4978     279.1335    476.64507    341.76603    39069.705 
   13300    292.12501   -1195.2242    254.21571    370.36992    177.62661    39069.705 
   13400    303.33138   -1212.0805    290.90379    440.50814    606.53001    39069.705 
   13500    303.75774   -1205.1064    281.32522    439.81768    329.04255    39069.705 
   13600     295.3923   -1168.8908    294.83688    451.99166    471.89844    39069.705 
   13700    296.45704   -1175.2617    281.97796    437.54153    217.01878    39069.705 
   13800    291.41417   -1193.4377    303.90674    418.65637    95.445123    39069.705 
   13900    308.50099   -1214.9292     277.6784    447.64099    462.34258    39069.705 
   14000    293.91512   -1199.0065    297.33231    417.74017    310.29043    39069.705 
   14100    312.96735   -1187.2188    288.30086    506.02373    73.004615    39069.705 
   14200    299.07574   -1187.8325    295.65545    450.40387    106.02439    39069.705 
   14300     300.0292    -1182.669    282.82957    447.02164    286.03277    39069.705 
   14400    296.05219   -1156.0019    297.78616    470.79216    612.35026    39069.705 
   14500    304.93061   -1212.3907    287.05014    443.52339    455.14917    39069.705 
   14600    300.46954    -1187.355     286.7997    448.28249    977.95918    39069.705 
   14700    296.36396   -1165.0517    298.99936    464.35506    156.58853    39069.705 
   14800    299.59683   -1179.2371    296.96611    462.64914    254.47533    39069.705 
   14900    299.39788   -1126.1905    289.88525    507.72175   -78.176936    39069.705 
   15000    295.99384   -1129.2017    296.28879    495.83303   -43.511262    39069.705 
   15100    294.20289   -1143.9472    297.57636    474.33535   -13.311476    39069.705 
   15200    297.15244   -1135.7406    286.63777    484.84421    178.37917    39069.705 
   15300    294.49013   -1130.6396    302.77606     494.1321    233.41422    39069.705 
   15400    286.29025   -1118.6334    300.15358    466.70569    251.70921    39069.705 
   15500    296.71057    -1157.991    307.20307    481.17548    326.40202    39069.705 
   15600    301.36691   -1122.5019    298.87345    529.23772    357.50517    39069.705 
   15700    291.72565   -1117.5149    318.60214    510.67285   -27.794734    39069.705 
   15800    306.53771   -1146.1302    298.13261     528.0808   -45.255935    39069.705 
   15900    294.64823   -1125.0642    303.64615    501.28733     22.06943    39069.705 
   16000    278.13775   -1125.6888    327.10838    450.00774    60.188714    39069.705 
   16100    296.73394   -1156.6806    300.36196    475.74965   -170.91588    39069.705 
   16200    297.89077   -1140.1537    281.78701    478.89473    182.78626    39069.705 
   16300    306.28273   -1184.4887    297.78473    488.22985    386.25346    39069.705 
   16400     297.7354   -1183.7777    298.36516    451.15145    147.82091    39069.705 
   16500    299.75469   -1158.6035    311.72381    498.74904    771.00906    39069.705 
   16600    283.88428   -1185.9819    304.89045    393.29341    418.59241    39069.705 
   16700    296.06825   -1159.6365    320.23503     489.6785    270.13922    39069.705 
   16800    296.90438   -1173.3211    310.96436    470.47673    573.18199    39069.705 
   16900    293.90295   -1144.5585    324.10905    498.91023    494.03086    39069.705 
   17000    293.38732   -1135.6234    322.59788    504.01954    737.71635    39069.705 
   17100    308.48698   -1183.6947    323.32124    524.45539    271.30946    39069.705 
   17200    302.75186   -1201.9319    310.61063    467.76211    244.70177    39069.705 
   17300    295.94535   -1181.3613    322.15055    469.31755    28.165243    39069.705 
   17400    301.30596   -1182.4333    327.52394    497.68321      540.087    39069.705 
   17500    288.26831   -1122.2216    312.21763    484.06128    234.57823    39069.705 
   17600    298.90444   -1163.9888    318.21112    496.03422    -30.84791    39069.705 
   17700     301.2854   -1190.1828    302.89433    465.21184    320.93953    39069.705 
   17800    293.94998   -1231.9124    323.78111     411.4396    304.09861    39069.705 
   17900    302.65922   -1236.0042    305.38569    428.04903    372.92354    39069.705 
   18000    298.29979   -1207.1618    303.09813    435.03387    473.47147    39069.705 
   18100    299.09413   -1168.0141    331.76321    506.41254    229.13905    39069.705 
   18200    299.55172   -1191.0498    315.63779    469.30556    549.07185    39069.705 
   18300    296.78706   -1189.3483    330.29742    473.25592    616.94825    39069.705 
   18400    302.36039   -1190.3026    325.29273    492.31614    779.72989    39069.705 
   18500    305.79513   -1204.2562    316.13775    484.62645    287.76759    39069.705 
   18600    301.73237   -1209.5191     326.0172    471.00488    169.84047    39069.705 
   18700    297.45304    -1220.646    330.47527    445.12571    249.89289    39069.705 
   18800    298.23505    -1238.456    329.13915     429.4901    491.67518    39069.705 
   18900    312.52496   -1197.6134    342.02889    547.37133    931.78612    39069.705 
   19000    295.49375   -1178.1438    331.70936    480.06656    85.065668    39069.705 
   19100    298.66721   -1208.1597    323.91249    456.49973   -23.528496    39069.705 
   19200    292.35566   -1238.6717    331.88007    405.62218   -113.66752    39069.705 
   19300    306.70843   -1208.5281     338.9751    507.29182    257.96903    39069.705 
   19400    293.75644   -1208.6259    332.93533    443.01148   -245.05993    39069.705 
   19500    302.15462   -1204.2081    333.61609    485.81025    679.67113    39069.705 
   19600    300.13211   -1195.0848    328.01214    480.25034   -17.942102    39069.705 
   19700    295.82547   -1190.1459     350.0842    487.92844    403.44989    39069.705 
   19800    299.12436   -1194.4778    333.34024    481.66156    5.5873692    39069.705 
   19900    296.46912   -1217.4128    329.49988    442.96664   -131.97508    39069.705 
   20000    298.70602   -1250.2232     330.9217    421.61965   -270.54058    39069.705 
   20100     303.5945    -1218.609    339.90997    484.16699   -15.446314    39069.705 
   20200    302.24127   -1233.4798    331.39259    454.70403    314.68136    39069.705 
   20300    304.26676   -1253.1839    312.82433    425.52429    337.30427    39069.705 
   20400    304.25869   -1246.0936    329.27623    449.03033    96.038798    39069.705 
   20500    304.67003     -1302.82    320.13145    385.00567    -215.0721    39069.705 
   20600    296.17466   -1246.9857    332.04661    414.61851    379.79578    39069.705 
   20700    292.38352   -1286.3235    336.82481    363.04016    83.168689    39069.705 
   20800    301.64111   -1274.1623    340.39522    420.33005    11.928005    39069.705 
   20900    310.43873   -1326.3102    333.76339    401.04364    86.187315    39069.705 
   21000    293.02777    -1267.903    328.36593    375.89385    155.57723    39069.705 
   21100    298.25563   -1287.4104    352.71217    404.20109    303.18169    39069.705 
   21200    301.74103   -1271.4904    351.29676    434.35202   -125.92223    39069.705 
   21300    303.45239   -1265.0528    338.27383    435.44917    616.82296    39069.705 
   21400    303.40748   -1327.0767     330.8475    365.79734    432.58978    39069.705 
   21500     310.2323   -1286.2991    344.55472    450.91938    167.15024    39069.705 
   21600     297.4173   -1278.3472    328.91343    385.70218    480.58708    39069.705 
   21700    292.03699   -1246.8706    336.33742    400.45002    123.51216    39069.705 
   21800    299.62794   -1250.5298    336.32557    430.85553    414.60449    39069.705 
   21900    303.00588   -1231.8498    317.64112    446.01504   -132.62097    39069.705 
   22000    306.35382   -1247.1792    318.04143    446.11515    169.63589    39069.705 
   22100    311.43377   -1222.0876    346.58908    522.55883    229.46021    39069.705 
   22200    301.77499   -1252.4425    345.40304     447.6586    156.12456    39069.705 
   22300    303.16179   -1210.2506    339.10346    489.77648    434.32221    39069.705 
   22400    305.79233   -1232.9809    344.64815    484.39956   -74.793223    39069.705 
   22500     312.1347     -1262.51    327.58024     466.2741   -433.24422    39069.705 
   22600    309.50605   -1216.3943    356.75598     529.7653   -557.43374    39069.705 
   22700    291.39359   -1191.0544    346.70182    463.74235   -89.719499    39069.705 
   22800    298.91242   -1225.5471    336.55066    452.85127   -193.40421    39069.705 
   22900    304.51136   -1254.0355     359.4603    472.40672   -131.12185    39069.705 
   23000    291.11032   -1235.6169    344.63288    415.83928    270.95767    39069.705 
   23100    287.22809   -1224.1495    338.88912    404.13517    -50.32557    39069.705 
   23200     298.6704    -1231.062    343.44065    453.13998   -31.924044    39069.705 
   23300    304.95151   -1241.9596    350.24535    477.24354    411.53441    39069.705 
   23400    304.56411   -1239.4417    349.36927    477.14633    43.505921    39069.705 
   23500    301.55442   -1235.4127    351.98448    470.27972      218.226    39069.705 
   23600    301.32917    -1255.204    364.75085    462.24356    710.89788    39069.705 
   23700    297.51483   -1267.8917    345.06246    412.74454    284.19135    39069.705 
   23800    296.54018    -1302.334    342.28221     371.1467    180.98369    39069.705 
   23900    299.30918   -1295.0306    340.21597    388.81421    436.34034    39069.705 
   24000     299.6874   -1283.1385    352.71036     414.8985    394.54998    39069.705 
   24100    306.76115   -1252.4853    354.39061    478.98678    557.58665    39069.705 
   24200    296.52463   -1230.4026    350.39992    451.12601     1.257575    39069.705 
   24300    305.17652   -1252.5055    336.12922    453.59161   -40.151502    39069.705 
   24400    306.01407   -1264.5646    368.23794    477.40108   -150.15613    39069.705 
   24500    294.74197   -1262.6545    363.60617    424.07787    99.779049    39069.705 
   24600    306.53816   -1229.0337    353.79074    500.83748    547.96906    39069.705 
   24700    294.64321   -1296.3778    354.65554    380.96058    383.20075    39069.705 
   24800    304.58122    -1279.796    357.05917    444.55869    493.28735    39069.705 
   24900    305.58822   -1273.1992    357.77558     456.3924     268.3642    39069.705 
   25000    292.85589   -1256.4877    334.75379    392.92548     659.1146    39069.705 
   25100    313.35051   -1244.8949     333.5606    495.32746    870.33945    39069.705 
   25200     303.0417   -1243.7049    365.21677    481.89633    1021.1055    39069.705 
   25300    298.10746    -1245.623    386.18798    478.79912    566.24587    39069.705 
   25400    305.22875   -1232.1525    359.08146    497.13136    93.266133    39069.705 
   25500     287.3785   -1268.0364    367.58087    389.61528    421.95684    39069.705 
   25600    300.52619    -1240.032    351.09685    460.15694   -54.503249    39069.705 
   25700    301.30211   -1215.4046    366.89781    504.06856   -56.008812    39069.705 
   25800    292.11553   -1246.8922       357.45    421.89364   -445.53765    39069.705 
   25900    306.01297   -1196.8879    394.83035    571.66524    141.72497    39069.705 
   26000    299.15498   -1177.6366    370.32158    535.62153   -46.426819    39069.705 
   26100    309.12428   -1172.7625    359.95836    574.88567   -134.35891    39069.705 
   26200    308.14181   -1223.3037    363.28309    523.25877   -216.12905    39069.705 
   26300    302.15651   -1185.5052    402.21728    573.12286    -262.6648    39069.705 
   26400    301.27605   -1202.2541    385.52973    535.73391    501.12464    39069.705 
   26500    291.29882   -1187.1007    359.60039    480.16921    82.557311    39069.705 
   26600    307.50789   -1241.3107     384.4836    523.60657    410.15251    39069.705 
   26700    294.84924   -1224.5732    376.05849    475.09304    375.66212    39069.705 
   26800    296.65519   -1227.3073    375.86529    480.27273     376.4613    39069.705 
   26900     293.7174   -1227.9271    380.11993    470.71958    120.99108    39069.705 
   27000    296.35379   -1233.8071    379.66093    476.21562    422.20981    39069.705 
   27100    303.63823   -1256.2677     357.1614      463.956    292.65542    39069.705 
   27200     302.3742   -1247.2427    367.00582    477.15109    103.28833    39069.705 
   27300    306.75702   -1242.1938    351.33339    486.20249   -371.65739    39069.705 
   27400    299.43816   -1202.7122    373.93687    515.43246    179.27586    39069.705 
   27500    292.88104   -1299.6565     381.8358    396.95161    -467.1546    39069.705 
   27600    304.82465   -1224.8611    357.23669    500.76393   -213.03279    39069.705 
   27700    293.13147   -1242.2941     354.2166    427.81893   -206.82879    39069.705 
   27800    311.86537   -1245.4771    371.60843    526.12609    732.04668    39069.705 
   27900    302.61074   -1248.1163    369.07831    479.41191    321.31662    39069.705 
   28000    309.22905   -1247.6239    392.65268    533.18893    287.07214    39069.705 
   28100     292.2805   -1251.1099    376.69044    437.65694    558.95684    39069.705 
   28200    303.61089   -1254.7734    350.21764    458.38391     679.9632    39069.705 
   28300    296.33171   -1288.7438     361.8686    403.38745   -160.79224    39069.705 
   28400    302.09082   -1290.4792    370.01755    435.65422   -13.963346    39069.705 
   28500    297.02691   -1261.7549    383.03981    454.66837      107.119    39069.705 
   28600    306.58829   -1249.1323    380.99084    508.16401    226.24664    39069.705 
   28700    308.60812   -1294.6874    372.13288    462.81812    284.62687    39069.705 
   28800    293.57381   -1315.5593     376.2286    378.55149    508.99199    39069.705 
   28900    300.94919   -1349.7511    378.22335    379.46328    487.56453    39069.705 
   29000     301.5514   -1276.6213    379.67886    456.75191    588.19634    39069.705 
   29100    307.38712   -1286.9882    390.44531    483.34857    323.05521    39069.705 
   29200    304.61684   -1263.5283    375.57451     479.5016    371.60116    39069.705 
   29300     303.9926   -1252.7328     360.8029    472.72322   -273.55135    39069.705 
   29400    305.55134   -1234.7745    376.27039    513.14637   -404.89475    39069.705 
   29500    294.51395   -1219.3575    382.88759    485.63265   -311.76873    39069.705 
   29600    299.69404   -1263.0383    372.36873    454.68691   -195.73158    39069.705 
   29700    310.17632   -1276.3875    369.96888    485.99382   -166.68655    39069.705 
   29800    289.76379   -1208.3328    381.37967    473.82543   -270.77592    39069.705 
   29900    296.55319   -1255.7366    365.90592    441.42627   -144.85117    39069.705 
   30000    308.07869   -1219.4072    388.34058    551.92941     872.4039    39069.705 
   30100    296.46615   -1243.1267     399.7672    487.50672    597.93967    39069.705 
   30200    291.44393   -1240.5892    377.51341    445.24517    494.74102    39069.705 
   30300    281.35311   -1205.6458    377.27783     434.6543     248.8208    39069.705 
   30400    292.73052   -1251.1812      379.921     442.8363    422.04271    39069.705 
   30500    308.13077   -1251.0691    364.29799    496.45877    237.73295    39069.705 
   30600    307.66322   -1216.7897    365.19466    529.53591    506.01348    39069.705 
   30700      302.585   -1249.0033    372.22235    481.55334    232.90785    39069.705 
   30800    301.08285   -1281.0368    365.89847    436.45265    418.29505    39069.705 
   30900    298.49408   -1298.1348    386.94491     428.7799    311.77577    39069.705 
   31000     301.9552   -1266.8451    368.27087    456.93284     369.3406    39069.705 
   31100    312.52999   -1222.6295    378.75346    559.10236   -215.41187    39069.705 
   31200    301.06754   -1247.8746    378.08277    481.73042   -103.25925    39069.705 
   31300    292.28738   -1251.4517    389.20242    449.85798    -180.6292    39069.705 
   31400    303.26547   -1252.6703    382.81484    491.53356   -141.29898    39069.705 
   31500    303.11204   -1217.1177     380.3926    523.97514    318.46987    39069.705 
   31600    299.99018   -1292.4939    375.63879    429.83076   -17.440789    39069.705 
   31700    291.08041   -1289.0759    388.27025    405.88343   -73.778068    39069.705 
   31800    301.76627   -1261.7656    375.92846    468.82179    181.26085    39069.705 
   31900    294.54542   -1280.3014    364.19028    406.13274    226.31593    39069.705 
   32000    298.16076   -1246.6078    367.99863    459.86431    90.622444    39069.705 
   32100    291.36151   -1265.6238    385.44825    427.77537    134.15268    39069.705 
   32200    309.04719   -1240.8249    377.01193    523.53071    447.30972    39069.705 
   32300    294.20301   -1232.9613    396.89158    484.63696    73.583023    39069.705 
   32400    296.01055   -1236.9773    408.65496    500.49858    52.350747    39069.705 
   32500    297.00159   -1232.5475    387.07925    487.80161    109.69799    39069.705 
   32600    304.13548    -1205.697    365.29285    524.89044    182.98897    39069.705 
   32700     309.4105   -1247.6177    384.37311    525.73006    69.094835    39069.705 
   32800    305.80832   -1238.3696    387.76154    522.19611    152.53388    39069.705 
   32900    305.45923   -1268.0753    401.38667    504.54835   -684.62971    39069.705 
   33000    298.28301   -1231.4193    384.01558    491.61853   -504.07869    39069.705 
   33100    303.97861   -1195.7988    378.27243    547.06395   -392.48534    39069.705 
   33200    295.86002    -1192.672    374.07884    509.55199   -538.65003    39069.705 
   33300    300.79625   -1209.2554    397.29113    538.34019   -35.716916    39069.705 
   33400     300.9199   -1215.3259    386.99089    522.52453   -127.24543    39069.705 
   33500    305.10615   -1241.9524    389.29251     516.9921    338.62539    39069.705 
   33600    296.05562    -1239.019    375.42737    465.43157    416.74938    39069.705 
   33700    302.10926   -1244.8395    357.81612    469.17527    126.72669    39069.705 
   33800    303.23363   -1219.6654        383.9    525.48067    781.51909    39069.705 
   33900    291.70427   -1202.2084    395.55934    502.84061    991.97577    39069.705 
   34000    295.81954   -1217.9171    378.65492    488.70131    711.29216    39069.705 
   34100    313.22351   -1230.0862     380.1147    556.12019    13.709318    39069.705 
   34200    303.99475   -1213.0408    375.96539    527.58736   -14.232726    39069.705 
   34300    300.17711   -1185.8859    387.18073    548.81984   -290.56956    39069.705 
   34400    302.02298   -1234.0824    395.41005    517.13896   -133.75118    39069.705 
   34500    305.64642   -1219.7258    373.30801    525.65958    53.363564    39069.705 
   34600    295.85164   -1255.7546    375.93276    448.28571   -442.48736    39069.705 
   34700    308.31183   -1245.8689     366.9778    505.15148    193.44323    39069.705 
   34800    312.96339   -1246.8877     375.7754    533.81163    181.79046    39069.705 
   34900    301.88568   -1258.0313    392.90468    490.06837     268.9479    39069.705 
   35000     307.5125   -1266.8735    378.07099    491.65183    125.80966    39069.705 
   35100    292.08133   -1282.4882    381.85158    410.54572    595.05745    39069.705 
   35200    294.56426   -1266.2788    383.52038    439.57003    249.50778    39069.705 
   35300    304.46987   -1235.3501    377.00497    508.45053    326.41496    39069.705 
   35400    295.17689   -1250.6321    381.27986    455.72634    -93.40519    39069.705 
   35500    303.35447   -1262.2517     381.9926     481.5294    71.178102    39069.705 
   35600    298.50102   -1255.3888    380.19286    464.80502    77.778282    39069.705 
   35700    300.88001   -1231.1164    380.73738    500.30145   -277.66618    39069.705 
   35800    308.11612   -1297.3357    383.25505    469.08338    385.34232    39069.705 
   35900     296.5577   -1257.5361    379.06505    452.80615    58.557504    39069.705 
   36000    302.63699   -1258.9694     386.5109     486.1092   -183.96149    39069.705 
   36100    313.22236   -1256.3653    387.31789    537.03909    484.33298    39069.705 
   36200    292.09593   -1261.2549    367.87122    417.86419   -153.79059    39069.705 
   36300    304.02228   -1256.1883    370.30512    478.90321    124.81769    39069.705 
   36400     293.7219   -1239.1329    396.31844    475.73247   -547.05709    39069.705 
   36500    305.83477   -1221.9076    388.09624    539.11153   -244.46375    39069.705 
   36600    300.76583   -1225.8009    388.30532    512.67228    -650.6711    39069.705 
   36700    303.39185   -1237.1666    402.25205     527.0418   -372.00632    39069.705 
   36800    306.75335   -1235.4114    373.89544    515.53047   -138.39135    39069.705 
   36900    296.31933    -1278.587    374.49289    426.11294     248.9336    39069.705 
   37000    299.99472   -1277.5354    388.97298    458.14384    395.73931    39069.705 
   37100    291.31528   -1269.0599    403.21468    441.89812    311.61776    39069.705 
   37200    290.08958   -1282.8054    374.90398    394.33969    197.87069    39069.705 
   37300    296.98243   -1273.4316    400.26515    460.01733    519.90326    39069.705 
   37400    297.12236   -1267.0349    404.27876    471.05587    285.44359    39069.705 
   37500    298.96557   -1265.1041    402.61053    479.59273    293.31643    39069.705 
   37600    310.45588   -1272.1761    370.53054    492.02192    471.20871    39069.705 
   37700    307.71974   -1252.0213    413.82237    543.18575    64.455126    39069.705 
   37800    304.95059   -1255.9813    398.04612    511.01853    453.00701    39069.705 
   37900     302.4189   -1281.9245    379.30195    454.96615    139.59623    39069.705 
   38000     308.0744   -1284.8775    385.56432    483.66362    93.421403    39069.705 
   38100    297.44431    -1269.465     384.6586    450.45078     435.6501    39069.705 
   38200    292.51786   -1283.1543    376.53911    406.52672    476.56467    39069.705 
   38300    297.55861   -1304.4577      374.736    406.04864    188.19406    39069.705 
   38400    306.15045    -1284.765    362.06812    451.64309    899.02449    39069.705 
   38500    289.35965   -1330.8017    401.87668    370.03941    496.67612    39069.705 
   38600    306.20463   -1290.4836    405.19766    489.29724   -85.595385    39069.705 
   38700    298.42986   -1310.1099    376.30732    405.87895   -11.723757    39069.705 
   38800     291.4307   -1284.0495    373.76738    397.97948   -14.713234    39069.705 
   38900    295.19743   -1258.5697    407.63169    474.23278     171.1281    39069.705 
   39000    303.83713   -1289.1184    407.66776    482.50462    532.98351    39069.705 
   39100    292.42459   -1280.9241    400.60592    432.40508   -270.55793    39069.705 
   39200    301.77579   -1294.7648    393.45782    453.39466   -551.22384    39069.705 
   39300       286.07   -1298.5661    401.84355     387.4743   -96.556256    39069.705 
   39400    304.29463   -1316.8428    391.46949    440.63573   -28.303146    39069.705 
   39500    301.52054   -1292.0979    366.37363    427.83153   -339.70968    39069.705 
   39600    292.19426    -1322.313    379.66106    369.03729   -257.90686    39069.705 
   39700    301.19594   -1326.7071    384.85652    410.24808   -220.32951    39069.705 
   39800    306.42649   -1286.8046    396.62387    485.39835    20.779739    39069.705 
   39900    292.87345   -1313.6564    394.29962    395.38138   -429.76961    39069.705 
   40000    301.41049    -1312.867    407.35271    447.54752       238.29    39069.705 
   40100    312.81257   -1285.3074    398.82084    517.76029    273.99646    39069.705 
   40200    310.56612   -1323.8116    381.49943    451.85013     709.7155    39069.705 
   40300    294.39971   -1329.6663     404.6669     396.5903    452.97784    39069.705 
   40400    308.04404   -1325.3359    392.58205    450.08664    57.973862    39069.705 
   40500    301.24395     -1354.78    395.99952    393.53369   -240.28076    39069.705 
   40600    306.94865   -1318.5279    391.24508    450.64031   -333.51656    39069.705 
   40700    311.89427   -1311.2502    416.70441    505.57881    62.934808    39069.705 
   40800    299.64995   -1334.9364    386.99187    397.21402    193.24464    39069.705 
   40900    298.53576   -1333.3718    381.09065    387.87569   -4.1598289    39069.705 
   41000    298.61818   -1368.9397    380.52572    352.11282   -160.93672    39069.705 
   41100    315.12753   -1332.9767    394.13766    475.79995    34.510606    39069.705 
   41200    295.78655   -1336.7899    406.06713    397.09263   -542.22306    39069.705 
   41300    293.08065   -1316.1896    408.35027    407.82899   -411.39724    39069.705 
   41400    302.51603   -1301.5517    391.84153    448.31449    370.01746    39069.705 
   41500    303.41616   -1329.8808    409.61091    441.79556    359.43824    39069.705 
   41600    297.86035   -1332.6162    410.90106     415.4097    557.67928    39069.705 
   41700    300.06216   -1340.1006    389.15849    396.06694    340.25379    39069.705 
   41800    298.90972   -1362.8965    392.08758    371.02673    49.664681    39069.705 
   41900    295.56062   -1347.9382    400.49392    379.35688   -284.76543    39069.705 
   42000    299.61679   -1315.7563    407.76465      437.018    345.19897    39069.705 
   42100     302.3619   -1338.9909    409.45872    427.80059    668.73975    39069.705 
   42200    305.13695   -1387.8985    394.24028    376.13207    554.74615    39069.705 
   42300    305.16517   -1362.2521    403.16271    410.82761    498.43881    39069.705 
   42400    308.70282   -1390.4404    391.72304    387.08048    517.34482    39069.705 
   42500    291.66625   -1394.4673    398.98772    313.83935    151.66671    39069.705 
   42600    306.69206   -1330.6523    409.64073    455.75968    366.91751    39069.705 
   42700    300.46653   -1347.4504    404.44502    405.81889    3.9316471    39069.705 
   42800    299.02423   -1320.6983    428.50536    450.15666   -256.23936    39069.705 
   42900    289.52454   -1307.3489    402.30164    394.65736   -61.992938    39069.705 
   43000    299.71145   -1321.2657    394.24357    418.41252   -27.921069    39069.705 
   43100    297.94919   -1302.4129    411.76457    446.87538    640.50323    39069.705 
   43200    295.76654   -1302.9545    419.90176    444.67283   -13.125718    39069.705 
   43300    310.46294   -1301.0494    391.56029    484.21003    522.40778    39069.705 
   43400    298.87746   -1291.9641    412.91525    462.64199    492.65467    39069.705 
   43500    292.23507   -1300.4801    404.30284     415.6952    244.22714    39069.705 
   43600    294.34453   -1292.2985    434.52197    463.56549    547.63977    39069.705 
   43700    305.05132   -1304.4944     416.5647    481.47612     254.9838    39069.705 
   43800    303.54224   -1315.7106    409.94182     456.8627    117.79809    39069.705 
   43900    294.47034   -1295.6491    418.66137    444.91905    265.66054    39069.705 
   44000    299.91651   -1308.3876    407.30759    445.27517   -117.97142    39069.705 
   44100    295.19531   -1289.6883    425.83229    461.30523    91.798198    39069.705 
   44200    304.27177   -1279.3008    417.13931    503.74494    160.77066    39069.705 
   44300    292.47441   -1323.8483    421.97365    411.07222    185.97637    39069.705 
   44400    304.16699   -1295.1572    431.52088    501.79966    629.48006    39069.705 
   44500    299.16279   -1275.2123    437.22096     504.9803    356.22041    39069.705 
   44600    300.75011   -1304.6835    426.52636    471.94017    743.31416    39069.705 
   44700    301.24258   -1335.5759    423.69676    440.42891    517.78118    39069.705 
   44800    309.58606    -1259.032     429.2114    559.94212    691.07681    39069.705 
   44900    295.01241   -1296.9752    449.98182    477.34675    59.894161    39069.705 
   45000    300.04661   -1307.9567    420.42334    459.40588   -234.04313    39069.705 
   45100    307.70609   -1314.6679    438.65571    505.31122   -401.93877    39069.705 
   45200    305.39166   -1355.1395    424.09559    439.88979   -406.30931    39069.705 
   45300    299.41762   -1343.6278    429.03771    429.52552   -766.79507    39069.705 
   45400    303.33155   -1363.0511    417.03531    415.66981    -150.7289    39069.705 
   45500    296.64489   -1351.1486    408.13633    388.65633    302.07341    39069.705 
   45600    312.70812   -1374.2346    385.37762    414.92108   -89.535257    39069.705 
   45700      299.212   -1381.3457    401.17502    363.02186   -291.33765    39069.705 
   45800    298.72961   -1334.7418     423.3184    429.60369   -343.21135    39069.705 
   45900    295.76072    -1327.681    408.11783     408.1363    175.31004    39069.705 
   46000    299.78672   -1341.9854    419.31874    423.10591    322.47404    39069.705 
   46100    298.00263   -1355.0739    390.42268    373.11235   -179.01195    39069.705 
   46200    296.32705   -1336.9027    399.06827    392.40729    -8.159297    39069.705 
   46300    305.90674   -1337.7325    436.37363    471.88706    280.93084    39069.705 
   46400    297.51176   -1326.8718    393.21659    401.90479   -499.46701    39069.705 
   46500    313.07158   -1354.6717    395.20514    445.94309   -247.69977    39069.705 
   46600    300.86501    -1353.205    408.50867    405.91681   -65.914839    39069.705 
   46700    301.14517   -1356.8937    409.20951    404.18655    13.761655    39069.705 
   46800    293.35121   -1356.5158    426.63996      387.007   -59.878039    39069.705 
   46900     304.1959   -1330.5016    443.79395    478.85818    545.72734    39069.705 
   47000    302.76248   -1302.8826    434.32599    490.57445    513.08174    39069.705 
   47100    304.64315   -1315.4463     416.4639    468.59117    631.79294    39069.705 
   47200    293.15046   -1294.1012    425.47435    447.35485    467.37537    39069.705 
   47300    296.10086   -1302.4176    409.34934    436.15813    157.10294    39069.705 
   47400    299.82676   -1325.2789    409.88009    430.55349    209.15288    39069.705 
   47500    306.34498   -1325.7966    409.84712    459.26377    635.04825    39069.705 
   47600     300.2464    -1309.114    430.59428     469.3164    121.77311    39069.705 
   47700    305.90985   -1328.0124    436.49439    481.74187    83.309196    39069.705 
   47800    293.26501   -1324.0926    408.50959    400.91289    252.45779    39069.705 
   47900    299.97237    -1319.338    411.99825     439.2662    113.17417    39069.705 
   48000    302.15279   -1322.4996    427.15505    461.04956    222.64891    39069.705 
   48100    309.36664   -1332.8892    414.62049      470.509    212.24405    39069.705 
   48200    294.96147   -1283.3931    443.50269    484.22112    273.57725    39069.705 
   48300     301.2878   -1278.4873    425.80171     499.8255    209.73643    39069.705 
   48400    305.40635   -1333.0936    412.75612    450.66215    490.27017    39069.705 
   48500    306.29046   -1312.1525    428.78131    491.59732    35.912525    39069.705 
   48600    308.07207   -1323.6955    428.66136    487.93214    168.83166    39069.705 
   48700     298.3278   -1328.6117    405.16297    415.77454    63.796655    39069.705 
   48800    296.56738   -1324.7844    438.37842    444.91463   -502.96492    39069.705 
   48900    297.25917   -1316.5042    424.25828    442.18026   -209.28721    39069.705 
   49000    308.23875   -1335.4499    418.49806    466.76268    -161.6546    39069.705 
   49100    296.06382   -1323.6743    422.84647    428.23225   -515.81077    39069.705 
   49200    303.83582    -1319.073    421.25476    466.13111    395.28006    39069.705 
   49300    301.82238   -1300.1266    395.71406    450.49829    369.32463    39069.705 
   49400    307.41398   -1310.1571    412.39873    482.25372    523.37443    39069.705 
   49500    298.06303   -1326.4408    417.96043    429.55433    369.17904    39069.705 
   49600    292.46961   -1312.7056    404.97969     405.1994    662.16924    39069.705 
   49700       296.94   -1325.1151    405.93374    413.81199    390.81682    39069.705 
   49800    291.19595   -1317.4806    440.67426    430.40135    68.710372    39069.705 
   49900    290.59847   -1288.5378    426.32964    442.31743    369.34805    39069.705 
   50000    300.65471   -1283.5261    402.35853     468.5015   -40.305146    39069.705 
   50100    308.93082   -1287.4364    407.63719    507.02218    44.620833    39069.705 
   50200    296.06789    -1294.427    426.77629     461.4276    336.14435    39069.705 
   50300    302.97995   -1317.5519    404.36749    446.92285    423.37035    39069.705 
   50400    290.80322    -1358.008    411.12217    358.55884    32.292984    39069.705 
   50500    297.19368   -1342.0164    404.62027    396.73598   -109.79459    39069.705 
   50600    305.69657   -1356.2226    438.30502    454.38491    72.473235    39069.705 
   50700    296.80681   -1369.5933    419.22546    382.02762   -123.15455    39069.705 
   50800    295.71029   -1384.0669    418.40683    361.81295    293.13437    39069.705 
   50900    303.17331   -1365.6966    419.04648    414.32514    413.86504    39069.705 
   51000    291.63422   -1359.4003    408.69902    358.47388    220.62862    39069.705 
   51100    302.25982   -1363.1828      405.136    398.82772    642.12342    39069.705 
   51200    297.63221   -1290.8817    408.12597      453.345    595.36211    39069.705 
   51300    304.62652   -1304.8258     414.0408    476.71391   -206.72466    39069.705 
   51400     297.4488    -1315.398    419.02313     438.9025    255.77136    39069.705 
   51500    299.91452   -1363.8823    420.33745    402.80135    537.15614    39069.705 
   51600    292.86247   -1356.9719    416.29204    374.00902    246.77854    39069.705 
   51700    294.64665   -1353.4509    432.40699    401.65437    389.25452    39069.705 
   51800    299.61451    -1314.124      419.397    450.27249    370.69532    39069.705 
   51900    296.04807   -1289.6858    405.67898    444.98257   -61.900637    39069.705 
   52000    296.41799   -1355.3623    417.40348    392.69112     441.4786    39069.705 
   52100    304.19805   -1332.6376    407.44122     440.3791    507.53966    39069.705 
   52200    298.36604   -1344.0777    435.91025    431.22754    325.12736    39069.705 
   52300    296.69471   -1342.5276    451.44179    440.80641     902.7883    39069.705 
   52400    299.45128   -1340.9637     429.0149    432.31795    915.58793    39069.705 
   52500    303.04634   -1365.8764    419.16588    413.69475     812.7641    39069.705 
   52600    301.18875   -1357.3561    416.70118    411.41143    315.27677    39069.705 
   52700    316.15823   -1292.6227     402.2762    528.91943    203.30894    39069.705 
   52800    300.92828   -1303.5841    421.81992    469.13296    352.82153    39069.705 
   52900    311.75934   -1343.7209    418.86391    474.66189    276.61041    39069.705 
   53000    297.28181   -1344.7321    459.02034    448.81597   -581.90034    39069.705 
   53100    303.49593   -1327.0617    435.90147    471.26336   -314.94158    39069.705 
   53200    297.28091   -1315.6735     397.1996    416.04977   -348.93903    39069.705 
   53300    288.76952   -1325.2086    421.69736    392.80402   -660.07337    39069.705 
   53400    293.88687   -1342.8055    418.47568    394.95768   -124.80483    39069.705 
   53500    298.13237   -1314.3066    425.22741    449.26681    385.61978    39069.705 
   53600    297.40519    -1348.016    434.88293    421.94854   -107.21974    39069.705 
   53700    304.26723   -1306.0244    441.44301    501.30457   -230.35683    39069.705 
   53800    292.68336    -1319.906    426.46645    420.44532    232.56047    39069.705 
   53900    291.57696   -1357.7888    423.61184     374.7411   -371.53227    39069.705 
   54000    296.86433   -1325.2185    446.04852    453.48362   -187.21391    39069.705 
   54100    299.46018   -1376.8549     415.9797    383.43146    255.21636    39069.705 
   54200    299.56686   -1325.6001    445.56766    464.75312   -553.81463    39069.705 
   54300    308.12415   -1290.1934    439.09842    532.10512   -568.74629    39069.705 
   54400    300.30909   -1298.3431     424.7931    474.56756   -168.24169    39069.705 
   54500    297.28791   -1316.0175    456.62197    475.15956   -268.27647    39069.705 
   54600    307.48397    -1311.518    435.21836    504.02665    658.93833    39069.705 
   54700    302.62411   -1265.1963    455.01954    548.33307   -250.97455    39069.705 
   54800    304.03046   -1243.0069    449.65653    571.47271   -170.24225    39069.705 
   54900    300.56103    -1284.825    434.81166    499.23519   -221.90322    39069.705 
   55000    306.50532   -1304.6292    425.95795    497.26173   -336.67388    39069.705 
   55100    307.61155   -1297.1856     432.7777    516.49109   -60.607613    39069.705 
   55200    303.71366   -1346.7457    423.25946    439.91475    530.33616    39069.705 
   55300    286.35005   -1307.0978    434.05553    412.41178   -172.46922    39069.705 
   55400    310.01222    -1327.355    439.51251    503.83333     117.4225    39069.705 
   55500    293.83758   -1246.4421    442.72479    515.34895    273.47346    39069.705 
   55600    303.86749   -1300.7605    441.64674    504.97772    121.27636    39069.705 
   55700    304.75258   -1328.9917     456.9576    496.03074    201.09955    39069.705 
   55800    301.76054   -1347.2404    437.29298     444.6858   -485.16345    39069.705 
   55900    303.97003   -1338.1299    440.65714    467.07909   -323.11705    39069.705 
   56000    297.22175   -1335.2522    447.32107    446.32702   -34.092042    39069.705 
   56100    301.96491   -1308.9455    424.08633    470.69143   -295.59506    39069.705 
   56200    295.88281   -1315.6805    453.58668    466.15367    73.639161    39069.705 
   56300    296.11046   -1340.4894     443.3769    432.15698   -101.65622    39069.705 
   56400    293.85319   -1319.1114    448.27558     448.3005   -51.557755    39069.705 
   56500    298.81072   -1317.3097    432.70098    456.78245   -461.52149    39069.705 
   56600    298.12922   -1343.2178    435.27009    430.38416   -341.18849    39069.705 
   56700    308.96809   -1323.0821    437.79065    501.69723    476.38503    39069.705 
   56800    290.68776   -1312.8179    464.24621    456.35473    722.23232    39069.705 
   56900    299.02015   -1388.8793    433.09828    386.55037    229.23615    39069.705 
   57000    308.71729   -1388.3563    446.67155    444.17805     713.6908    39069.705 
   57100     305.9019   -1356.5083    450.98402    467.69989     1027.122    39069.705 
   57200    297.74887   -1333.9358    431.35096    434.03961      618.256    39069.705 
   57300    296.49309   -1350.8072    441.98095    422.16084    539.39933    39069.705 
   57400    288.20894   -1362.2559    426.85226    358.39507    51.274933    39069.705 
   57500    307.50893   -1398.0243    448.21299      430.627     873.6116    39069.705 
   57600      295.709   -1375.6086    416.22658    368.08528    96.807245    39069.705 
   57700    288.28329   -1335.5877    438.47319    397.01795    10.746369    39069.705 
   57800    303.24035   -1343.2512    443.25486    461.27985    39.678504    39069.705 
   57900    292.62544   -1365.2384    437.18415    385.57065    145.76476    39069.705 
   58000    291.24385    -1375.317    451.28291    383.38866    231.04713    39069.705 
   58100    308.75465   -1350.0012    460.56608    496.59533    277.92961    39069.705 
   58200    310.44855   -1345.5492    454.94433     503.0297    231.87652    39069.705 
   58300    307.32716   -1346.6856    474.20468    507.14137    483.66411    39069.705 
   58400    291.18426    -1352.851    441.97805    396.28227     165.3924    39069.705 
   58500    304.07495   -1367.9147     462.1977    459.30582    298.07411    39069.705 
   58600    296.04548   -1319.0521    462.81372     472.7394    183.31928    39069.705 
   58700    292.54012   -1357.0727    457.15285    413.32194    42.103439    39069.705 
   58800    301.91621   -1312.4862    471.00683    513.85272    410.30985    39069.705 
   58900    298.92212    -1370.723    443.77255    414.94083    377.08716    39069.705 
   59000    309.52565   -1337.3025    476.05788    528.24696    35.136089    39069.705 
   59100    303.15165   -1417.0436    451.58544    395.41991   -350.15183    39069.705 
   59200    301.44002   -1364.9628    444.77033    433.00191    75.804808    39069.705 
   59300    301.53665   -1367.2581    438.92277    425.29281    212.60411    39069.705 
   59400    303.29162   -1377.0763    439.26616    423.69625    -152.9103    39069.705 
   59500    297.86581   -1378.0006    431.60538    390.75412    120.90326    39069.705 
   59600    297.52619   -1370.4319    445.04581    410.23869    482.46306    39069.705 
   59700    303.77444   -1361.7931    466.88471    468.76541    377.11446    39069.705 
   59800    305.48828   -1397.3996    452.09318    426.06098    169.38889    39069.705 
   59900    296.83211   -1397.6854     443.4904    378.31398    129.69411    39069.705 
   60000    293.04467    -1370.415    448.99701    394.08882   -62.741542    39069.705 
   60100    306.09129   -1384.6373    433.55002    422.98707   -478.62074    39069.705 
   60200    296.42909   -1401.6083    420.73561    349.82712   -747.46635    39069.705 
   60300    303.09089   -1374.3484    434.77645    421.03337   -333.48413    39069.705 
   60400    314.09345   -1363.4581    440.44203    486.98078   -121.09525    39069.705 
   60500    301.60893    -1362.788    425.85668    417.02128   -60.438857    39069.705 
   60600    302.65996   -1387.8058    453.33998    424.20503    -195.7643    39069.705 
   60700    300.62792   -1390.6435    451.18658    410.09187    374.37474    39069.705 
   60800    296.79892   -1368.1065    456.25852    420.51204    363.03451    39069.705 
   60900    284.88148   -1365.6268    457.03789    370.27255    206.49416    39069.705 
   61000    293.94165   -1384.9728    465.13523    399.69585    346.74272    39069.705 
   61100    302.14577   -1360.2003    452.86676    449.02897    350.40206    39069.705 
   61200    303.32198   -1384.1808    430.49502     407.9569    -174.8552    39069.705 
   61300    292.33839   -1346.5289    455.32918    421.13651   -465.17691    39069.705 
   61400    298.93784    -1335.682    439.15677    445.43667   -855.37619    39069.705 
   61500    292.92897   -1346.2264    440.90017    409.66121    47.422759    39069.705 
   61600    301.84211   -1359.5961     462.9781    458.38144    296.73181    39069.705 
   61700    290.63043   -1421.7818    449.67115    332.55844    65.932951    39069.705 
   61800     303.3402   -1391.8823    422.29988    392.14207   -264.68064    39069.705 
   61900    297.33842   -1370.8871    460.53238    424.42712   -60.545675    39069.705 
   62000    296.43705   -1391.7474    437.36834    376.35646    106.75588    39069.705 
   62100    297.30041   -1359.4496    438.92402    414.08563    161.50212    39069.705 
   62200    307.61952    -1404.776     443.5279    419.68674    239.21871    39069.705 
   62300    306.92948   -1379.9647    452.29845    450.17091     35.77119    39069.705 
   62400    291.04282   -1391.5503    440.18428    355.15426    103.97064    39069.705 
   62500    298.58407   -1346.1187    444.82945    439.08445    306.64778    39069.705 
   62600    290.89064   -1412.2672     443.6896    337.25959   -409.71974    39069.705 
   62700    296.57032   -1349.6685    441.78754    423.45288   -193.58403    39069.705 
   62800    294.33076    -1351.071    428.72839    398.93756   -121.88272    39069.705 
   62900    298.96854   -1347.0182    437.87544    432.95693     172.5822    39069.705 
   63000     298.7206   -1325.4307    453.70603    469.26191    118.46338    39069.705 
   63100    302.24762   -1343.3949    442.60528    456.03016   -59.892393    39069.705 
   63200    309.05949   -1316.5803    447.39148    518.21014    49.480053    39069.705 
   63300    302.19712   -1354.3895    463.08374    465.28732     213.6723    39069.705 
   63400    299.53561   -1312.8278    427.27785    459.09537    403.78441    39069.705 
   63500    303.60199    -1372.923    447.65831    437.63495    397.15516    39069.705 
   63600    292.75702   -1315.6334    497.10741    495.68956    497.49072    39069.705 
   63700    305.29802   -1300.6412    453.88102    523.75315    3.1809694    39069.705 
   63800    303.75754   -1322.0282    463.72914     505.2989    346.19642    39069.705 
   63900    287.98586   -1303.6471    466.81719    455.96737    39.922372    39069.705 
   64000    295.48638    -1339.023    443.81996    431.26489    390.70781    39069.705 
   64100     298.0154   -1336.0902    448.20729    449.93805   -23.226987    39069.705 
   64200    288.87845    -1330.067    469.91584    436.65306    16.375639    39069.705 
   64300    302.44618   -1323.7917    450.26952    484.18894     50.35393    39069.705 
   64400    300.77751   -1348.2133    471.63289    473.63988    347.12363    39069.705 
   64500    306.18883   -1374.9177    466.45675    466.05126    80.275992    39069.705 
   64600    303.78899   -1387.1864    450.20361    426.75641   -59.788943    39069.705 
   64700    295.24234   -1402.3807    434.99389     357.9856    301.26758    39069.705 
   64800    298.11168   -1400.6824     414.1206    351.69137   -183.69912    39069.705 
   64900    299.53476   -1394.5041    430.28648    380.42383    59.149749    39069.705 
   65000    294.56664   -1406.9847    455.45198    370.80638    186.61256    39069.705 
   65100    301.46944   -1378.1522    459.30345    434.47765   -203.85087    39069.705 
   65200    305.63148   -1352.1779     453.7944    473.62679    79.686309    39069.705 
   65300      303.962   -1376.1955     464.4057    452.72596    47.966578    39069.705 
   65400    309.05393   -1411.4417     436.2148    412.14704    79.672001    39069.705 
   65500    287.27773   -1431.6189    427.80456    285.80404    224.39498    39069.705 
   65600    287.01442   -1398.2984    444.78566    334.92366    384.49825    39069.705 
   65700    305.13282    -1423.913    460.44567    406.30442    378.37363    39069.705 
   65800    300.50629   -1437.5999    464.29131    375.69414     237.8794    39069.705 
   65900    309.34364   -1368.9381      446.223    465.95939    24.160768    39069.705 
   66000    301.72133   -1379.1874    440.99729    416.26707    327.12406    39069.705 
   66100    290.68965   -1422.4578    440.65335    323.13044    391.59141    39069.705 
   66200    299.53983   -1402.5294    429.64385    371.77865    308.56573    39069.705 
   66300    306.25984   -1399.4505      468.644    444.02452    628.49614    39069.705 
   66400    302.82138   -1362.9574    441.51963    437.95765    641.27563    39069.705 
   66500    310.05088   -1386.6041    451.18366    456.42897    913.78121    39069.705 
   66600    290.99162   -1396.7476    446.91777    356.46067    895.16205    39069.705 
   66700    293.71444    -1402.026    448.36589    364.85339    813.07301    39069.705 
   66800    299.97677   -1439.4074     435.8711    343.08935    800.03549    39069.705 
   66900    300.50091   -1410.7485    447.79267    386.02272   -403.32522    39069.705 
   67000    300.23438   -1365.3082    460.34677    442.82074   -7.8004238    39069.705 
   67100    306.22688   -1399.8349    424.94929    399.79747   -37.325712    39069.705 
   67200    305.44834   -1391.9779    443.57293    422.78311   -284.09921    39069.705 
   67300    301.37395   -1404.2187    428.68559    377.36469    44.174235    39069.705 
   67400    300.33883   -1409.9032    448.69366    387.04151    312.40082    39069.705 
   67500    295.69054   -1403.4816    464.48397    388.38672   -9.5139507    39069.705 
   67600    303.36979   -1363.7863    455.66463    453.73562    143.08331    39069.705 
   67700    309.36448   -1393.4768    462.44997    457.74124    200.47295    39069.705 
   67800    296.88317   -1383.4687    461.45049       410.72    484.85898    39069.705 
   67900    302.27936   -1340.4605    461.49519    477.99693    306.25096    39069.705 
   68000    302.10305   -1361.2823    460.24802    455.13646    126.74279    39069.705 
   68100    304.08245    -1345.161    450.06116    469.95666    85.576491    39069.705 
   68200    298.35427   -1362.8991    460.35199    436.79497    331.34926    39069.705 
   68300    307.78342   -1322.6911    465.01563    523.99511    698.58146    39069.705 
   68400    292.76083    -1379.116    460.75193    395.86851    217.15641    39069.705 
   68500    285.67064   -1408.4244    431.64789    305.62748    253.55565    39069.705 
   68600    297.45684   -1398.0494    440.91386    378.17791    124.58056    39069.705 
   68700    298.06308    -1400.548    451.42921    388.91618    668.28094    39069.705 
   68800     295.4993   -1370.9122    441.30493    396.91864    782.27906    39069.705 
   68900    302.11855   -1390.8406    462.00845    427.40824    476.87853    39069.705 
   69000    301.71787    -1383.267    478.16176    449.33647    695.03502    39069.705 
   69100     303.6686   -1362.3419    482.36203     483.2188    547.85768    39069.705 
   69200    293.93114   -1350.8344    444.23152    412.88339    105.16805    39069.705 
   69300    300.56385   -1369.3222    444.09169    424.03069   -100.91367    39069.705 
   69400    301.12633   -1348.9946    456.46251    459.25406   -299.26933    39069.705 
   69500    308.70665     -1342.78    467.56271     510.5977   -145.99356    39069.705 
   69600    303.64673   -1369.4326    436.71015    430.37803   -195.68287    39069.705 
   69700    305.64443   -1398.1649    486.49541    460.39887    197.31648    39069.705 
   69800    303.76843   -1363.1703    465.24717     465.7237   -241.72322    39069.705 
   69900    309.84566   -1366.7573    460.65942    484.83024   -208.83279    39069.705 
   70000    303.67779   -1358.4992    459.25877     463.9995    92.626496    39069.705 
   70100    292.74453   -1394.3355    435.63976    355.46376   -261.10439    39069.705 
   70200    289.79537   -1389.8646    464.20246    375.25818    40.665016    39069.705 
   70300    294.74263   -1364.8315     452.1818    410.47942   -194.36768    39069.705 
   70400    297.68788   -1379.0227     456.6727    414.00062    278.45636    39069.705 
   70500    302.18368   -1389.0654    451.73915    419.20644    121.50082    39069.705 
   70600    311.37305   -1334.3265    473.92511    537.38335    433.21811    39069.705 
   70700    303.21737   -1366.9076     442.9421    437.20759    -304.1072    39069.705 
   70800    306.13622   -1362.1023    463.45681    475.63056    103.23444    39069.705 
   70900    293.04174   -1345.7415    447.47947    417.23167    192.77343    39069.705 
   71000     298.1672   -1364.9715     441.6953     415.2262    212.67715    39069.705 
   71100    298.32045   -1350.0698    428.76092    417.88143    406.27675    39069.705 
   71200    293.86677   -1380.3114    455.42153    394.30744   -350.82141    39069.705 
   71300    318.46435   -1381.6033    450.06996     498.0849   -321.35723    39069.705 
   71400    296.26003    -1386.596    459.85286    403.19771    337.45713    39069.705 
   71500    300.32575    -1396.998     453.5451    404.73944    77.901895    39069.705 
   71600    294.29908   -1367.2198    431.16292    385.08105   -310.23632    39069.705 
   71700    306.35839    -1375.261    445.19244    445.20486   -295.41341    39069.705 
   71800    295.66057   -1409.4899    445.68987     363.4498   -553.04934    39069.705 
   71900    300.37712    -1421.612    463.31576    390.12663    244.73711    39069.705 
   72000     310.6508   -1377.7703    448.42546    465.19768   -273.20691    39069.705 
   72100     301.1079    -1373.162     457.8458    436.38727     241.8534    39069.705 
   72200    305.29457   -1384.5614    436.35074    422.28716   -412.40261    39069.705 
   72300     300.4783   -1396.9391    431.54751     383.4855    403.44894    39069.705 
   72400    299.12311   -1378.3777    444.70618    409.12201    252.60053    39069.705 
   72500    303.54672   -1373.8766    436.69691    425.47189   -442.06852    39069.705 
   72600    306.78383   -1372.9772    436.86954    441.07556   -15.571284    39069.705 
   72700    294.37625   -1379.9337    457.12172    398.67248    316.94345    39069.705 
   72800    304.66854    -1410.055    436.24792     393.8805    18.324979    39069.705 
   72900    296.54117   -1384.2206    444.19973    391.18208    146.40356    39069.705 
   73000    294.03859   -1381.0799    444.66664    383.55529    135.55695    39069.705 
   73100    303.40232   -1393.1891     459.9698    428.78401   -128.53844    39069.705 
   73200    305.03503   -1399.3582    418.52688    388.50145      253.206    39069.705 
   73300    297.99925   -1374.5385    442.93012    406.13999    288.03823    39069.705 
   73400    294.88363   -1398.0528    472.08378    397.79301    272.29866    39069.705 
   73500    300.58181   -1418.0295     440.6064    371.91868    113.17227    39069.705 
   73600    306.64001   -1392.3164    448.23481    432.45601   -260.81955    39069.705 
   73700     291.1681   -1418.2853    452.60634    341.40373    61.932671    39069.705 
   73800    308.32542   -1423.0333     433.5904    394.66069    77.867509    39069.705 
   73900    293.35577   -1398.2289    452.96559    371.64008    126.33879    39069.705 
   74000    305.15823   -1404.1857    446.54129    412.24142    329.95052    39069.705 
   74100    301.90035   -1410.9488    452.96462    397.27662    639.35023    39069.705 
   74200    306.27404   -1421.0669    442.52148    396.34936    450.43423    39069.705 
   74300    296.43991   -1402.8855    454.33346    382.19634    334.53393    39069.705 
   74400    290.85321   -1399.9566     447.3703    353.08276   -124.44398    39069.705 
   74500     298.6233   -1361.2968    449.12241    428.37546    355.13452    39069.705 
   74600    308.21859   -1383.6672    472.03887    471.99571   -305.52845    39069.705 
   74700     299.0923   -1381.8684    470.64318    431.43005    529.42221    39069.705 
   74800    302.79984    -1380.159    446.77923    425.91899    -7.046522    39069.705 
   74900    311.82612    -1424.874    454.26735    429.21199     324.3988    39069.705 
   75000    292.92359   -1392.4311    466.47494    389.00714    83.261319    39069.705 
   75100    297.16757   -1385.8572    467.00642    415.16418   -521.96981    39069.705 
   75200    300.92357   -1420.1329    459.51527    390.25832   -131.49137    39069.705 
   75300    302.50496   -1438.8685    468.13285    387.23934   -97.022785    39069.705 
   75400    303.07664   -1436.0318    465.80044    390.30992    -114.8446    39069.705 
   75500    302.17467   -1413.3586    432.29383    375.42753    -103.4519    39069.705 
   75600    293.07495   -1407.0529    451.59662    360.18642    522.83085    39069.705 
   75700     301.1431   -1358.4952    493.01787    486.38409    328.46458    39069.705 
   75800    293.83675   -1353.2996    474.26842    440.03137    917.98966    39069.705 
   75900    304.27757   -1341.4408    476.50656    500.99823     444.2407    39069.705 
   76000    300.39033   -1387.1454    445.36049    406.69727   -137.48857    39069.705 
   76100    295.12502   -1350.2644    473.34511    447.92642   -205.92886    39069.705 
   76200    301.18166   -1357.3917    476.41462    471.05752    40.633269    39069.705 
   76300    310.66087   -1342.6706    461.48856    513.40568   -390.26201    39069.705 
   76400    295.72694   -1377.0162    443.43562    393.96726   -527.29736    39069.705 
   76500    291.98888   -1360.6969    457.94047    408.01082   -215.06536    39069.705 
   76600    298.56912   -1367.6525    465.20693      437.861   -386.18409    39069.705 
   76700    310.85198   -1359.4535    459.88603    495.87809    -389.1128    39069.705 
   76800    289.05037   -1317.0585    490.17871    470.69619     153.7283    39069.705 
   76900    299.93087   -1322.5416    501.56899    525.44701    424.00526    39069.705 
   77000    299.62599   -1387.2735    454.99969    412.77721    838.76722    39069.705 
   77100    298.57217   -1374.8137    454.82984    420.33642    518.24016    39069.705 
   77200    305.97347   -1384.7624    467.67635    456.45939    371.51817    39069.705 
   77300    300.81433   -1358.0791    466.41458    458.72102    388.49989    39069.705 
   77400    298.97967   -1371.5857    483.97562    454.53954    71.874964    39069.705 
   77500    298.70344   -1371.0876    456.93059    426.75261    53.131203    39069.705 
   77600    300.20163   -1329.0555    469.19349    487.77309    159.14204    39069.705 
   77700    303.38015   -1394.8229     453.0547    420.13566   -51.317603    39069.705 
   77800    303.63987   -1361.0602    492.75561    494.76511   -567.25226    39069.705 
   77900    297.87828   -1401.6043    461.24991    396.85102   -338.69398    39069.705 
   78000    307.35149   -1371.9715    466.58674    474.34679   -48.683199    39069.705 
   78100    288.05388   -1376.7297    459.34561    375.71862   -457.16465    39069.705 
   78200    283.61542   -1390.0936    489.87487    372.95926   -523.81689    39069.705 
   78300    297.21927   -1409.7466    423.59518    348.09562   -54.641201    39069.705 
   78400    297.56639   -1369.5127    473.87353    440.16609   -28.519695    39069.705 
   78500    295.57444   -1396.9479    475.56759    405.48288    176.38362    39069.705 
   78600     303.3658   -1384.3949    472.47231    449.91677    59.534277    39069.705 
   78700    311.25639   -1446.1063    468.67115    419.82584    444.39729    39069.705 
   78800     302.4327     -1402.14    449.41635    404.92692   -100.24641    39069.705 
   78900    301.46852   -1397.1372    473.16612    429.35121   -33.937811    39069.705 
   79000    304.65691   -1362.8183    475.59635    480.41333   -6.1895714    39069.705 
   79100    293.72876   -1408.6639    468.28437    378.19819   -580.53337    39069.705 
   79200    303.31051   -1406.9885    485.45537     440.0581   -142.65952    39069.705 
   79300    302.15745   -1408.3091    488.68329    436.78916    172.86467    39069.705 
   79400    298.34944   -1328.2717    489.74869    500.79745    46.229099    39069.705 
   79500    303.54839   -1302.0774    473.37179    533.95346    751.07478    39069.705 
   79600    306.05475   -1378.1337    448.24436    444.02099   -299.87854    39069.705 
   79700    306.68884   -1362.9462    455.50221    469.31283    304.58886    39069.705 
   79800    305.79283    -1410.683    459.39403    421.44563    687.46179    39069.705 
   79900    298.20945   -1396.4823    471.34897    413.55865   -137.05261    39069.705 
   80000    297.39213   -1393.1215    456.71285    398.61436   -232.96356    39069.705 
   80100    299.44132   -1341.0394    447.56069    450.74329    32.028765    39069.705 
   80200    292.02812   -1357.3611    473.33847    426.92077    347.59232    39069.705 
   80300     297.3118   -1343.3426     460.8879    452.20775     419.2813    39069.705 
   80400    299.94444   -1396.7232    456.05263    405.80998    455.21938    39069.705 
   80500    296.84666   -1394.1129    458.15295    396.61436     577.9607    39069.705 
   80600    303.40537   -1402.6427    457.45898    416.83332    183.12107    39069.705 
   80700    302.84303   -1408.0729    454.93239    406.35212    352.17086    39069.705 
   80800    298.18892   -1396.3999    457.59803    399.79798    29.874881    39069.705 
   80900    297.54827   -1421.1741    441.82718      356.377    270.58144    39069.705 
   81000    299.74505   -1399.8712    480.89566    426.60998    -44.54426    39069.705 
   81100    304.51642   -1415.9423    455.83496    406.89732   -123.23109    39069.705 
   81200    303.98889   -1394.8901    447.10859    416.85505   -447.17318    39069.705 
   81300    306.42114   -1389.5714    442.58221    428.56596   -47.489028    39069.705 
   81400    297.37804   -1368.1742    474.99114    441.77669    157.19657    39069.705 
   81500    295.80593   -1352.2509    461.36341    437.01488   -132.55598    39069.705 
   81600     300.1795   -1355.6637    435.99025     427.8623    -202.4056    39069.705 
   81700    306.67695   -1386.4841    459.05147     449.2709   -772.92061    39069.705 
   81800    297.79372   -1371.3066      445.276    410.79518   -569.63755    39069.705 
   81900    303.06564   -1347.7117    472.50881    485.28911   -231.51047    39069.705 
   82000    308.76367   -1349.5982    472.78786    509.26059   -74.605308    39069.705 
   82100    301.31372   -1335.3985    463.74355    480.97249    135.06601    39069.705 
   82200      298.538   -1365.6334    470.87082    445.40435   -38.192286    39069.705 
   82300    317.85362   -1365.8456    464.42179    525.45289    141.64333    39069.705 
   82400    307.19849   -1346.5078    456.71204    489.24894    35.108023    39069.705 
   82500    297.94614   -1350.9717    445.02552    431.56375    172.78228    39069.705 
   82600    299.01813   -1373.0528    445.04473    414.31424    32.323008    39069.705 
   82700    295.84866   -1402.0087    450.65039    376.73588   -128.28634    39069.705 
   82800    300.45501   -1374.8404    465.38683    439.31903   -206.74223    39069.705 
   82900    300.26526   -1367.3655    460.82931    441.38457   -178.65648    39069.705 
   83000    300.04268   -1364.5161    449.67211    432.07757    -104.6496    39069.705 
   83100    301.20443   -1382.7961    453.40756    422.74831    19.290747    39069.705 
   83200    311.13127   -1353.3266     432.5604    475.93316   -120.00302    39069.705 
   83300    291.32215   -1405.0322    435.44784    338.18987     -389.172    39069.705 
   83400    295.95974   -1345.2428    459.94927    443.29926   -319.73654    39069.705 
   83500    294.63208   -1387.9668    444.76592    379.43195   -203.35015    39069.705 
   83600    288.04702    -1403.957    465.25889    354.37375    310.09376    39069.705 
   83700    295.87868   -1406.8344    451.87895    373.27348    596.27818    39069.705 
   83800    299.81853     -1429.31     470.3067    386.91205    478.88579    39069.705 
   83900    295.23998   -1406.1809     444.1305    363.31144    270.33646    39069.705 
   84000    296.70788   -1432.5302    424.76937     324.1905    527.77486    39069.705 
   84100    305.82015   -1418.3412    446.84658    401.36256     458.7724    39069.705 
   84200     300.2013   -1411.2313    489.11075     425.5131    773.21811    39069.705 
   84300    297.48401   -1417.0264     450.2046    368.61368    448.04306    39069.705 
   84400    305.95971   -1379.1757    475.83476    470.14276    645.82232    39069.705 
   84500    295.77922   -1381.2364    454.57289    401.11903    633.38837    39069.705 
   84600     300.8912   -1354.5972    471.67565     467.8091    272.84572    39069.705 
   84700    297.69642   -1356.6808    437.50834    417.21648    229.69983    39069.705 
   84800    292.85507   -1346.7295    449.16953    417.09571   -350.51402    39069.705 
   84900    305.29992   -1375.8649    464.13344    458.79036   -92.925394    39069.705 
   85000    297.33022   -1359.9287    434.11985    408.93619   -362.07813    39069.705 
   85100    298.38292   -1317.6671    475.27756    497.08117   -325.58714    39069.705 
   85200    296.19189   -1356.9995    459.95759    432.59305   -705.72094    39069.705 
   85300    297.32884   -1329.7511    462.02757    467.01534   -772.58147    39069.705 
   85400    291.62067   -1347.8281    473.20741    434.49363   -37.571041    39069.705 
   85500    308.41113   -1369.6855    458.48901    473.29183    291.24287    39069.705 
   85600    295.09418   -1345.2257    468.02491    447.50644    358.65921    39069.705 
   85700    297.60993   -1420.1213    465.43118    381.31062     512.0646    39069.705 
   85800    312.84164   -1393.2914    492.50733    503.59333    758.74268    39069.705 
   85900    297.03387    -1375.415    467.77619    425.77589    51.139537    39069.705 
   86000    307.47585    -1381.889    491.78445    490.18526    505.82351    39069.705 
   86100    289.17777   -1353.8383    470.13422    414.44381    130.69066    39069.705 
   86200    296.64233    -1356.559    477.53522    452.63331   -64.717011    39069.705 
   86300    297.33863   -1351.7037    455.55148    438.63064      484.711    39069.705 
   86400    299.05359   -1349.7412    456.74739    449.48762    248.94115    39069.705 
   86500    296.28108   -1386.5763    460.36516    403.82427   -27.771848    39069.705 
   86600    295.70163    -1406.606    455.79722     376.6254   -369.28782    39069.705 
   86700    307.99852   -1401.6005    482.95495    463.99058   -293.16851    39069.705 
   86800    307.22605   -1419.7021    478.08932    437.55562    46.570783    39069.705 
   86900    305.83227   -1380.5079    481.17118    473.57491    33.478222    39069.705 
   87000    297.92632   -1402.8062    464.18008    398.79486    257.39845    39069.705 
   87100     295.1271   -1443.1927    466.92565    348.58797    106.26756    39069.705 
   87200    292.96567   -1430.8909    458.29085    342.55215    170.17019    39069.705 
   87300    293.33375   -1415.2136    462.69802    364.28892   -332.46047    39069.705 
   87400    292.68326   -1430.5387    483.95895    367.30466    429.25133    39069.705 
   87500      306.309   -1427.6539    471.30322    418.70108    -230.1403    39069.705 
   87600     288.2917   -1427.4615     457.6688    324.37758    86.863988    39069.705 
   87700    306.54341   -1416.6149    452.85148    412.34057    193.77802    39069.705 
   87800    304.28518   -1391.0099    476.26607    451.22272   -11.031853    39069.705 
   87900    297.63158    -1383.366    487.32066    440.05259    512.56095    39069.705 
   88000     304.7729   -1400.1467    475.43191    443.44119    599.25133    39069.705 
   88100    295.59335   -1380.4593     474.2833    420.77205    745.92158    39069.705 
   88200    301.90046        -1384    466.31036    437.57172    994.34408    39069.705 
   88300    302.40831   -1383.5153    464.42147    438.44731    279.90167    39069.705 
   88400    298.29384    -1382.909    493.77101    449.93291   -92.487154    39069.705 
   88500    306.32139   -1360.4081    454.40584    469.10508    177.12487    39069.705 
   88600    298.68786   -1366.6939    473.37584    447.52164    69.591788    39069.705 
   88700    304.65074   -1417.1507    463.31393    413.77082   -207.86761    39069.705 
   88800    290.43748   -1404.8023    462.23948    361.24005    321.31404    39069.705 
   88900     305.0928    -1391.117    490.40468    468.87971    543.63596    39069.705 
   89000    307.29311   -1429.3654    475.92697    426.03105    512.12062    39069.705 
   89100    300.86188    -1458.096     452.1119    344.61495    551.65858    39069.705 
   89200    309.33914   -1428.6635    466.47517      426.466    269.74559    39069.705 
   89300    303.93857   -1406.0207    468.05539    426.44531    218.05678    39069.705 
   89400    300.47171   -1425.9313    467.06754    389.98372    426.11405    39069.705 
   89500    307.03469   -1418.8821    460.41078    419.83808    413.59972    39069.705 
   89600    301.05992   -1400.2754    474.19142    425.40412     559.2484    39069.705 
   89700     301.6478   -1384.3078    465.41581    435.23515    794.76194    39069.705 
   89800    298.22363   -1420.4559    490.31377    408.61352    -107.1704    39069.705 
[...]
  983500    298.72248   -1570.7338    512.59046    282.85171   -208.63228    39069.705 
  983600     292.4549   -1556.7604    504.60566    260.70454    130.84372    39069.705 
  983700    295.63589     -1532.05     509.3053     304.3943     223.7787    39069.705 
  983800    308.15831   -1523.8713    538.13889      397.621     135.4906    39069.705 
  983900    287.52172   -1531.6341     521.0552    280.13487    334.71861    39069.705 
  984000    299.10913   -1536.5957    512.35813    318.49318    30.487414    39069.705 
  984100    308.17426   -1518.7022    525.50403    390.22689   -553.89723    39069.705 
  984200    294.75675   -1543.4454     503.7487    283.49584   -683.98656    39069.705 
  984300    294.23485   -1549.2776    524.54116    296.11318   -723.02563    39069.705 
  984400    293.74495   -1485.5931    530.62687    363.68423   -603.16967    39069.705 
  984500    303.23748   -1519.7183    510.76369    352.30872   -162.07792    39069.705 
  984600    296.01019   -1500.4716     519.8211    348.16885    30.884562    39069.705 
  984700    293.34285   -1560.9819    502.70251    258.56592   -140.85704    39069.705 
  984800    294.16727   -1482.2655    535.93048    374.21122   -20.131116    39069.705 
  984900    298.45006   -1498.9358     519.1765    360.01285    102.15657    39069.705 
  985000    303.23168   -1496.0612    516.24796    381.42404    89.592864    39069.705 
  985100    296.54028   -1492.8037    534.46339    372.85865    364.79544    39069.705 
  985200    286.10946   -1506.6627    530.57212    308.28339   -78.339013    39069.705 
  985300    303.96786   -1539.1579    516.98406    342.36827   -250.52581    39069.705 
  985400    301.55532   -1511.4501    497.70381    339.96569    424.41091    39069.705 
  985500    308.67816   -1523.0787    544.09806    406.70647    80.998383    39069.705 
  985600    310.01662   -1527.3833    501.17085    365.48313    433.59057    39069.705 
  985700    304.04896   -1503.3784    510.53674    372.06449    362.59805    39069.705 
  985800    298.68898   -1498.7598    532.15445    374.23939    138.66901    39069.705 
  985900     298.7328   -1562.5186    490.78794    269.31078    417.03594    39069.705 
  986000     304.0002   -1517.4043    542.68627    389.96928    158.72935    39069.705 
  986100    307.09327   -1467.6885    518.25023    429.13417   -163.70305    39069.705 
  986200    299.15021   -1496.4989    519.53305     365.9494   -458.67397    39069.705 
  986300     301.3577    -1533.105    513.60874    333.32859   -873.99237    39069.705 
  986400    297.20873   -1536.2918    520.89039     318.7983   -741.04018    39069.705 
  986500    300.86349   -1516.8799    534.88612    368.61249   -430.09799    39069.705 
  986600    299.38763   -1533.4261    494.12695    304.68189   -338.40441    39069.705 
  986700    295.82971   -1538.1407    511.33077     301.1992   -730.46919    39069.705 
  986800    304.04286   -1526.1556    489.24101    327.96421   -134.63541    39069.705 
  986900    300.10161   -1539.9146    507.69771    314.96916   -423.28294    39069.705 
  987000    293.46276   -1533.6499    501.73867    285.47246   -508.88205    39069.705 
  987100    304.89845   -1513.8994    495.83256    350.65274   -317.53587    39069.705 
  987200    296.88888   -1505.0567    496.24691    323.95403   -381.53051    39069.705 
  987300    288.41896   -1525.3621    533.07614    302.45557   -321.30344    39069.705 
  987400     280.6443   -1514.2116    510.83933    256.46806   -319.60792    39069.705 
  987500    303.56238   -1538.8573    505.53668    329.40121   -101.89524    39069.705 
  987600    295.81761   -1555.3941    497.33189    269.89255   -228.49239    39069.705 
  987700    296.52957   -1508.9718    525.08392    347.26302   -516.50992    39069.705 
  987800    307.65382   -1564.1006     499.4937    316.48188    3.3274804    39069.705 
  987900    307.66566   -1546.6872    536.53513    370.98983   -45.432065    39069.705 
  988000    295.64135   -1542.9788     512.3611    296.54581   -717.88975    39069.705 
  988100    301.63172   -1550.0403     511.0055    315.02013   -390.13999    39069.705 
  988200     302.1072    -1564.447    492.76124    284.50367   -182.49665    39069.705 
  988300    298.12247    -1522.936    506.47059    321.83612     15.17283    39069.705 
  988400    303.95536   -1553.1337    491.56932    302.92164   -17.272239    39069.705 
  988500    308.34267   -1565.1353    501.76274    320.80857    264.15159    39069.705 
  988600    303.33747   -1574.0744     496.9553    284.59311   -58.565933    39069.705 
  988700    306.42398   -1559.0393    522.41405    338.94261   -116.17716    39069.705 
  988800    305.55662   -1543.0109    503.41457     332.0779   -367.80169    39069.705 
  988900    305.48661   -1526.5288    501.45059     346.2817   -572.76044    39069.705 
  989000    315.93455   -1524.3666    511.53262    405.42781    52.278344    39069.705 
  989100    276.13687   -1526.9382    520.02153     232.6893   -607.68246    39069.705 
  989200    304.14653   -1532.5486     522.1402    354.93574   -280.41068    39069.705 
  989300    289.97553   -1533.0341    506.68685    275.38189   -9.9157274    39069.705 
  989400    294.88278   -1564.2081    516.58247    276.13261    87.384275    39069.705 
  989500    297.49161   -1565.7187    538.21249    307.96335    490.31793    39069.705 
  989600    300.47426   -1576.7345     501.5348     273.6593    83.238154    39069.705 
  989700    297.07302   -1564.6372    539.07677    308.03005    318.18322    39069.705 
  989800    299.63678   -1564.6407    495.36587    275.82464    608.13525    39069.705 
  989900    287.98106    -1523.247    518.84354    288.37231   -124.47192    39069.705 
  990000    289.84337   -1556.9317    534.82312    279.02726   -309.56627    39069.705 
  990100     304.7316    -1527.566    530.38982    370.79442    169.68224    39069.705 
  990200    306.41906   -1576.2218     510.2759    309.59984    367.85521    39069.705 
  990300    289.67708   -1601.3657    521.92742    220.95108     52.98591    39069.705 
  990400    295.23178   -1559.7148    504.87121    270.48137    520.50497    39069.705 
  990500    305.72456   -1561.0701    548.99381    360.35182     361.5407    39069.705 
  990600    308.42333   -1544.7057    524.31166    364.14909    276.80281    39069.705 
  990700    304.40891   -1533.7451    521.04417    353.82109    92.197124    39069.705 
  990800    289.59745   -1562.1296    529.41687    267.31916   -667.03198    39069.705 
  990900    298.98082    -1542.571    501.35415    300.93787   -613.48893    39069.705 
  991000     308.3719   -1531.5849    510.67206    363.39948   -568.30751    39069.705 
  991100     293.1599   -1518.7924    533.16022    330.39189     -344.813    39069.705 
  991200    295.67562   -1525.1672     504.1301    306.28029   -404.66699    39069.705 
  991300    294.02809   -1562.5742    486.96399     244.3113   -44.291123    39069.705 
  991400    301.23887   -1551.4635    558.47956    359.30747   -20.880402    39069.705 
  991500    296.80004   -1554.2669    475.90858     254.0067   -737.49889    39069.705 
  991600    299.22601   -1510.5735    523.56583    356.24781   -414.22786    39069.705 
  991700    309.44157   -1481.5704    519.38814    426.93194   -732.35753    39069.705 
  991800    293.10358   -1524.9345    516.46163    307.29839   -617.30362    39069.705 
  991900    301.42941    -1530.884    525.70946    347.97221   -832.92109    39069.705 
  992000    289.68724   -1543.4016    515.80092    272.83426   -203.21106    39069.705 
  992100    302.92489   -1504.4182    509.54427    364.98623    -571.8128    39069.705 
  992200     295.9918   -1489.0216     509.4118    349.12692   -501.85582    39069.705 
  992300    309.11985   -1514.6022    519.53271    392.60042   -498.00908    39069.705 
  992400    297.39105   -1520.8074    536.19651    350.40727   -260.59316    39069.705 
  992500    305.98335   -1496.8359    491.80808    368.56201    94.137748    39069.705 
  992600      308.965   -1533.3395    540.11494    393.75024    196.55319    39069.705 
  992700    285.44908   -1483.2474    515.40676    313.56881    282.16656    39069.705 
  992800    295.58744   -1511.0998    556.16716    371.98886    207.61345    39069.705 
  992900    301.61454     -1504.11    492.68702    342.55485    70.880386    39069.705 
  993000    299.37353   -1525.9993    508.39631    326.31464   -764.57102    39069.705 
  993100    313.78275   -1486.7034    534.51332    456.41201     32.78055    39069.705 
  993200    296.65773   -1498.2299    493.25891    326.75517   -521.92706    39069.705 
  993300    305.05818   -1480.7145    539.65576    428.37792   -169.15638    39069.705 
  993400    293.74287   -1456.5662    501.81626    363.89116   -538.10989    39069.705 
  993500    296.28892   -1510.1361    514.19635    334.13086     5.637349    39069.705 
  993600    295.46202   -1488.6178    530.80245    368.54325    746.86573    39069.705 
  993700    301.35032   -1493.4053     513.7483    373.13469    430.54347    39069.705 
  993800    299.51248   -1552.6797    504.07332    295.93512    396.69346    39069.705 
  993900    297.74548   -1516.9355    504.70686    324.38063    20.907266    39069.705 
  994000    291.10035   -1524.1692    523.69939    306.30875    123.70668    39069.705 
  994100    309.71297   -1506.4467     528.4025    412.28826   -306.85266    39069.705 
  994200    295.84602   -1517.4432    533.41815     344.0573    80.810004    39069.705 
  994300    300.40994   -1538.1178    510.24278    320.69523    330.89755    39069.705 
  994400    304.29741   -1526.2498    516.25993    356.03163    618.16652    39069.705 
  994500    297.65044   -1516.2466    507.66602    327.60197    158.73648    39069.705 
  994600    301.16264   -1500.7553     537.3383    388.53221    65.591497    39069.705 
  994700    292.09068    -1502.532    509.18738    317.87965   -82.760858    39069.705 
  994800    298.12677   -1549.9073    531.02753    319.44108    240.56456    39069.705 
  994900    300.88751   -1523.1881    499.63069    327.15672    675.97027    39069.705 
  995000    301.45549   -1504.8522    525.06695    373.47852    17.774535    39069.705 
  995100    303.05394    -1529.885    517.33194    347.88634   -36.517711    39069.705 
  995200    303.28446   -1491.3814    510.95664    381.04946   -203.14515    39069.705 
  995300    300.34149   -1497.4369    527.78434    378.61044    396.15252    39069.705 
  995400     297.8648   -1507.3307    499.61744    329.43162    265.03431    39069.705 
  995500     296.6861   -1526.7801    522.17993     327.2534     233.7703    39069.705 
  995600    299.03108   -1525.4175    493.04095    310.00382    273.68203    39069.705 
  995700    287.62337   -1513.1345    512.39481    290.43038   -218.18885    39069.705 
  995800     302.3406   -1524.8466    499.43861    331.82919   -66.071083    39069.705 
  995900    299.26263   -1506.8568    505.54788    342.11093   -388.57272    39069.705 
  996000    299.28146   -1489.4887    544.29491    398.31053    190.35604    39069.705 
  996100    290.13027   -1480.4961    490.90934    312.83705   -239.56029    39069.705 
  996200    292.37207   -1471.7767    537.01588    377.72659     -241.852    39069.705 
  996300    297.20626   -1521.7548    493.70545    306.13931   -569.14628    39069.705 
  996400    297.18776   -1496.0259    529.37696    367.45662   -809.57961    39069.705 
  996500    291.64135   -1519.3919    534.59597    324.41127   -218.83235    39069.705 
  996600    298.39788   -1488.6858    552.24881    403.10094   -190.49718    39069.705 
  996700    297.33602   -1498.5262    515.16057    351.40545    11.171599    39069.705 
  996800    300.01533   -1538.6624    516.48651    324.62292      222.877    39069.705 
  996900    310.17223   -1515.6101    498.72334    375.50742    665.88975    39069.705 
  997000    295.00638   -1585.0873    509.53592    248.76177    582.64521    39069.705 
  997100    302.25446    -1574.349     521.0883    303.58976    317.60959    39069.705 
  997200    296.04499   -1556.2735    514.31887    287.02088   -391.50718    39069.705 
  997300    297.57499   -1565.7302    490.15209     260.2657   -536.39751    39069.705 
  997400    300.34225   -1533.7374    511.31007    325.83905    -384.6194    39069.705 
  997500    307.64417   -1572.2131    517.36338    326.19568   -294.78992    39069.705 
  997600    301.47244   -1531.8221    491.78467     313.3025   -210.15847    39069.705 
  997700    300.85607   -1526.7178    512.00372    335.85895     242.5615    39069.705 
  997800    298.70872   -1484.0115    543.07855    400.00032    499.32315    39069.705 
  997900    300.79737   -1550.6593    511.26812    310.91825    383.37859    39069.705 
  998000    299.77492   -1546.8051    525.22631    324.14083    46.961677    39069.705 
  998100    301.48982   -1532.1703    488.03864    309.28633   -226.22333    39069.705 
  998200    309.21764     -1505.63    520.19706    402.67596   -497.17891    39069.705 
  998300    295.01688    -1455.293    552.01487    421.08217   -82.714984    39069.705 
  998400    292.66049   -1507.0174    506.57549    313.34032    181.24322    39069.705 
  998500    300.96202    -1555.163    511.32213    307.20776     43.69221    39069.705 
  998600    299.55114   -1529.5981    492.10762    307.22452    149.99537    39069.705 
  998700    294.31262   -1534.6665    520.67733    307.20964    124.39048    39069.705 
  998800    306.24932   -1547.7418    509.82022    336.86225    30.251303    39069.705 
  998900    297.94541    -1524.832    497.21276    309.88745   -386.90867    39069.705 
  999000    300.27998   -1555.4057     486.8343    279.41544   -788.79743    39069.705 
  999100    294.50399    -1527.298    514.70166     309.4615    85.778895    39069.705 
  999200    300.21106   -1519.5637    518.49473    346.60844   -325.65418    39069.705 
  999300    297.98427   -1524.7007    518.34971    331.33017   -204.81222    39069.705 
  999400    293.09062   -1543.7031    520.37292    292.38294    205.01696    39069.705 
  999500    303.47679   -1554.2404    537.82086    345.91813    494.97878    39069.705 
  999600    306.45638   -1515.7775    535.28475    395.22061     52.36072    39069.705 
  999700    294.46704   -1486.5328    513.85242    349.21156   -52.191557    39069.705 
  999800    293.66644   -1526.5978    522.99324    314.69347   -143.51763    39069.705 
  999900    294.26053   -1513.5377    507.87083    315.29807   -359.37836    39069.705 
 1000000    300.43278   -1504.5416    517.17324    361.30442   -136.56017    39069.705 
 1000100    299.03479   -1523.7314    504.50262    323.16826   -385.37101    39069.705 
 1000200    302.96777   -1534.3374      500.332    326.04723   -456.07202    39069.705 
 1000300     295.8521   -1499.8329    508.30205    336.57881    296.69631    39069.705 
 1000400    298.65145   -1588.4793    539.78272    291.97958   -35.389491    39069.705 
 1000500      293.925   -1568.6558     520.6932    271.49611    323.73157    39069.705 
 1000600    301.42983   -1594.4445     503.4936    262.19775    109.72627    39069.705 
 1000700    298.42218    -1598.889    511.31643    252.07447    370.71068    39069.705 
 1000800    296.47717   -1570.6302    508.87159    269.15701    304.37077    39069.705 
 1000900    291.40384   -1573.3216    530.26006     265.0794    -12.00399    39069.705 
 1001000    307.12823   -1531.3136    493.75614    341.17182    7.9948447    39069.705 
 1001100    293.79833   -1515.4134    523.93772    327.41444    4.1821539    39069.705 
 1001200    303.47566   -1490.1717    509.87686    382.03778    148.34793    39069.705 
 1001300    309.04735   -1566.6772    514.20203    334.86933    385.61424    39069.705 
 1001400    293.54362   -1546.0626    508.73216    280.41625    179.98952    39069.705 
 1001500    298.78867   -1515.4018    503.14226     329.0326    713.66034    39069.705 
 1001600    297.80156   -1561.2751    497.93484    273.52073    758.75807    39069.705 
 1001700    297.28732   -1587.8133     501.8526    248.59179    568.98098    39069.705 
 1001800    291.39803   -1608.3711    488.72049    188.46427   -285.79602    39069.705 
 1001900    298.95965   -1599.1765    503.15421    246.03748   -430.53884    39069.705 
 1002000    298.56663   -1590.6307    518.71702     268.3818   -589.99384    39069.705 
 1002100    311.17087   -1562.3716    508.12612     342.6317     43.14803    39069.705 
 1002200    300.85513   -1591.5474    489.77808    248.79939   -300.76408    39069.705 
 1002300    302.56642   -1587.2606    491.14908    262.13939   -269.41664    39069.705 
 1002400    303.68407   -1579.3576    491.10654    275.01706   -225.02588    39069.705 
 1002500    295.32182   -1586.5708    492.54997    231.70837   -313.48099    39069.705 
 1002600    300.70525   -1564.6802    496.24831    281.46401   -341.28057    39069.705 
 1002700    306.95402   -1520.8115    501.32214    358.45792   -304.48259    39069.705 
 1002800    297.45206   -1578.2428    512.35993    269.40916    333.79655    39069.705 
 1002900    300.80819   -1551.2189    521.52518     320.6643    390.78701    39069.705 
 1003000    292.40959   -1556.2981    507.34081    263.69862    500.74523    39069.705 
 1003100    301.70087   -1591.0687    510.56167    273.85829    353.38235    39069.705 
 1003200    307.04629   -1612.4347    473.87109    239.79783   -162.44253    39069.705 
 1003300     308.4295   -1585.1666    512.72248    312.12674    721.86642    39069.705 
 1003400    285.91424   -1591.0184    493.28382    185.76304    425.16118    39069.705 
 1003500    299.53401   -1577.9587    520.69535    287.37475    309.89388    39069.705 
 1003600    292.59656   -1581.1401    519.88508    252.24023    31.933393    39069.705 
 1003700    296.53802    -1544.113    502.38908    289.46485   -301.29329    39069.705 
 1003800    311.22504   -1577.0115    486.56153    306.67034   -363.96894    39069.705 
 1003900     289.2423   -1563.0343    513.71118    249.11444   -858.89251    39069.705 
 1004000    305.00852   -1540.6227    523.62886    352.21988   -778.71421    39069.705 
 1004100    306.08244   -1561.8949    502.08698    314.22678   -730.51205    39069.705 
 1004200    287.93122   -1530.1232    508.80887    271.23765   -616.64652    39069.705 
 1004300    298.26429   -1531.9851    515.67799     322.6311   -348.78906    39069.705 
 1004400    300.22689   -1541.8823    523.62655    329.49275   -256.60043    39069.705 
 1004500    297.47976   -1540.3591    509.04519    304.10241   -620.51257    39069.705 
 1004522     303.9473   -1530.4339    501.61429    335.63017   -435.78894    39069.705 
Loop time of 619.958 on 32 procs for 1000000 steps with 1507 atoms

Performance: 139.364 ns/day, 0.172 hours/ns, 1613.012 timesteps/s
100.0% CPU use with 32 MPI tasks x no OpenMP threads

MPI task timing breakdown:
Section |  min time  |  avg time  |  max time  |%varavg| %total
---------------------------------------------------------------
Pair    | 229.11     | 270.19     | 327.62     | 157.3 | 43.58
Bond    | 1.3344     | 1.5094     | 1.6967     |   7.9 |  0.24
Neigh   | 39.754     | 39.829     | 39.893     |   0.8 |  6.42
Comm    | 238.93     | 296.1      | 337.14     | 150.0 | 47.76
Output  | 0.39102    | 0.41084    | 0.90454    |  13.8 |  0.07
Modify  | 8.7454     | 9.1373     | 9.5013     |   6.8 |  1.47
Other   |            | 2.781      |            |       |  0.45

Nlocal:        47.0938 ave          80 max          15 min
Histogram: 1 0 4 8 6 1 6 2 3 1
Nghost:        1927.62 ave        1965 max        1882 min
Histogram: 3 1 3 1 4 7 3 2 3 5
Neighs:        5205.31 ave       10346 max        1430 min
Histogram: 1 5 6 4 6 2 3 2 1 2

Total # of neighbors = 166570
Ave neighs/atom = 110.53086
Ave special neighs/atom = 2.0106171
Neighbor list builds = 49598
Dangerous builds = 0
The system volume is 39069.7046863321
Lattice vectors
33.9323061088006 0 0
0 33.9323061088006 0
0 0 33.9323061088006
Total wall time: 0:10:24
