LAMMPS data file
 1517 atoms
 1016 bonds
 530 angles
 36 dihedrals
 0 impropers
 4 atom types
 3 bond types
 2 angle types
 1 dihedral types
 1 improper types
 0 15 xlo xhi
 0 15 ylo yhi
 0 15 zlo zhi
 0 0 0 xy xz yz

# Atom types
#
# 1 C_3
# 2 H_
# 3 H__HB
# 4 O_3

# Bond Coeffs
#
# 1 C_3*C_3
# 2 C_3*H_
# 3 O_3*H__HB

# Angle Coeffs
#
# 1 C_3
# 2 O_3

# Dihedral Coeffs
#
# 1 A1

# Inversion Coeffs
#
# 1 1

 Masses

 1 12.01
 2 1.01
 3 1.01
 4 16

 Atoms # full

1 1 1 0 5.75688304257282 8.75732157955986 4.67557017405555
2 1 1 0 6.66927247071857 8.87946141348162 3.42312887308475
3 1 1 0 8.18653047328463 8.75470920731406 3.73535449776276
4 1 1 0 9.07337764515339 8.94305104185289 2.47577329072966
5 1 1 0 10.5824410720723 8.8139791100373 2.78196991049066
6 1 2 0 4.72067382168346 8.93484114332752 4.3749067991267
7 1 2 0 6.01981179077005 9.56155845932947 5.36897942881775
8 1 2 0 6.38611130668934 8.12005665727876 2.68919777179383
9 1 2 0 6.48494341238722 9.85728415509822 2.96889345589223
10 1 2 0 8.38592093656533 7.76750868687065 4.16087665416471
11 1 2 0 8.45993564273188 9.50815375319358 4.4794751261584
12 1 2 0 8.80523111702614 8.19212212173523 1.72751281710819
13 1 2 0 8.88952526524542 9.93169795957844 2.0463108424598
14 1 2 0 11.1581828561177 8.95485068608387 1.86522058970203
15 1 2 0 10.8906183626472 9.57070159772969 3.50608017432799
16 1 2 0 10.8064866303065 7.82408246419449 3.18462402804654
17 1 2 0 5.82902443946418 7.43072132257133 5.35011615248292
18 2 3 0 7.01820644826628 4.86584146198817 8.77041725674644
19 2 4 0 7.97820644826628 4.86584146198817 8.77041725674644
20 2 3 0 8.21820644826628 3.93584146198817 8.77041725674644
21 3 3 0 5.42360083825886 10.1387321580574 7.13744925451465
22 3 4 0 6.38360083825886 10.1387321580574 7.13744925451465
23 3 3 0 6.62360083825886 9.20873215805739 7.13744925451465
24 4 3 0 13.9975701172091 8.91536178341135 6.58355957362801
25 4 4 0 14.9575701172091 8.91536178341135 6.58355957362801
26 4 3 0 15.1975701172091 7.98536178341135 6.58355957362801
27 5 3 0 9.00530935658142 10.4772234782018 13.8680781063158
28 5 4 0 9.96530935658142 10.4772234782018 13.8680781063158
29 5 3 0 10.2053093565814 9.54722347820178 13.8680781063158
30 6 3 0 13.9882091867924 1.78114518447779 7.5307930202689
31 6 4 0 14.9482091867924 1.78114518447779 7.5307930202689
32 6 3 0 15.1882091867924 0.851145184477791 7.5307930202689
33 7 3 0 6.15945330049843 13.070700834915 6.40200146008283
34 7 4 0 7.11945330049843 13.070700834915 6.40200146008283
35 7 3 0 7.35945330049843 12.140700834915 6.40200146008283
36 8 3 0 1.59353184906766 10.61507883057 5.43347671162337
37 8 4 0 2.55353184906766 10.61507883057 5.43347671162337
38 8 3 0 2.79353184906766 9.68507883056998 5.43347671162337
39 9 3 0 0.283366028890014 6.24041047337465 4.19519426766783
40 9 4 0 1.24336602889001 6.24041047337465 4.19519426766783
41 9 3 0 1.48336602889001 5.31041047337465 4.19519426766783
42 10 3 0 -0.48726503460668 11.3944936361536 9.70756501774304
43 10 4 0 0.47273496539332 11.3944936361536 9.70756501774304
44 10 3 0 0.71273496539332 10.4644936361536 9.70756501774304
45 11 3 0 13.3145281537157 6.49730548187159 10.9888558310922
46 11 4 0 14.2745281537157 6.49730548187159 10.9888558310922
47 11 3 0 14.5145281537157 5.56730548187159 10.9888558310922
48 12 3 0 4.05319096913561 5.3458138314914 8.0389474646654
49 12 4 0 5.01319096913561 5.3458138314914 8.0389474646654
50 12 3 0 5.25319096913561 4.4158138314914 8.0389474646654
51 13 3 0 1.41254282134585 8.38851294637658 7.59277813369408
52 13 4 0 2.37254282134585 8.38851294637658 7.59277813369408
53 13 3 0 2.61254282134585 7.45851294637658 7.59277813369408
54 14 3 0 4.63526505438611 13.3005337479431 0.477345044491813
55 14 4 0 5.59526505438611 13.3005337479431 0.477345044491813
56 14 3 0 5.83526505438611 12.3705337479431 0.477345044491813
57 15 3 0 2.60761224126443 5.73254702071659 0.35589083796367
58 15 4 0 3.56761224126443 5.73254702071659 0.35589083796367
59 15 3 0 3.80761224126443 4.80254702071659 0.35589083796367
60 16 3 0 2.44392270033248 6.99869951972738 12.5533180986531
61 16 4 0 3.40392270033248 6.99869951972738 12.5533180986531
62 16 3 0 3.64392270033248 6.06869951972738 12.5533180986531
63 17 3 0 9.48349960774183 14.7398014510423 3.32027419935912
64 17 4 0 10.4434996077418 14.7398014510423 3.32027419935912
65 17 3 0 10.6834996077418 13.8098014510423 3.32027419935912
66 18 3 0 0.249861613120884 13.47407909384 12.9571057471912
67 18 4 0 1.20986161312088 13.47407909384 12.9571057471912
68 18 3 0 1.44986161312088 12.54407909384 12.9571057471912
69 19 3 0 10.141278490629 1.83773088193499 8.89240465359762
70 19 4 0 11.101278490629 1.83773088193499 8.89240465359762
71 19 3 0 11.341278490629 0.907730881934985 8.89240465359762
72 20 3 0 -0.271884904503822 9.88070244243369 10.1436151738744
73 20 4 0 0.688115095496178 9.88070244243369 10.1436151738744
74 20 3 0 0.928115095496178 8.95070244243369 10.1436151738744
75 21 3 0 -0.560929917991161 10.4242972777598 13.5871752002276
76 21 4 0 0.399070082008839 10.4242972777598 13.5871752002276
77 21 3 0 0.639070082008839 9.49429727775976 13.5871752002276
78 22 3 0 1.82559327964671 3.33421701489948 9.55010733101517
79 22 4 0 2.78559327964671 3.33421701489948 9.55010733101517
80 22 3 0 3.02559327964671 2.40421701489948 9.55010733101517
81 23 3 0 7.1161208899878 4.05478497193195 9.12973752245307
82 23 4 0 8.0761208899878 4.05478497193195 9.12973752245307
83 23 3 0 8.3161208899878 3.12478497193195 9.12973752245307
84 24 3 0 7.7354574766662 2.93745121493936 1.19320894475095
85 24 4 0 8.6954574766662 2.93745121493936 1.19320894475095
86 24 3 0 8.9354574766662 2.00745121493936 1.19320894475095
87 25 3 0 8.84262776395306 14.6605990528502 10.7315872167237
88 25 4 0 9.80262776395306 14.6605990528502 10.7315872167237
89 25 3 0 10.0426277639531 13.7305990528502 10.7315872167237
90 26 3 0 -0.524097855230793 9.97940890764818 1.86442244332284
91 26 4 0 0.435902144769207 9.97940890764818 1.86442244332284
92 26 3 0 0.675902144769207 9.04940890764818 1.86442244332284
93 27 3 0 12.7620610948373 3.39120597619563 12.0049671723973
94 27 4 0 13.7220610948373 3.39120597619563 12.0049671723973
95 27 3 0 13.9620610948373 2.46120597619563 12.0049671723973
96 28 3 0 12.694772922406 4.07619918388315 0.0658986833877861
97 28 4 0 13.654772922406 4.07619918388315 0.0658986833877861
98 28 3 0 13.894772922406 3.14619918388315 0.0658986833877861
99 29 3 0 0.61077195729129 14.7034080412146 11.2907875457313
100 29 4 0 1.57077195729129 14.7034080412146 11.2907875457313
101 29 3 0 1.81077195729129 13.7734080412146 11.2907875457313
102 30 3 0 9.98698412368074 14.3369377292134 12.1670660795644
103 30 4 0 10.9469841236807 14.3369377292134 12.1670660795644
104 30 3 0 11.1869841236807 13.4069377292134 12.1670660795644
105 31 3 0 13.9280969013646 3.08749943197705 9.45280613726936
106 31 4 0 14.8880969013646 3.08749943197705 9.45280613726936
107 31 3 0 15.1280969013646 2.15749943197705 9.45280613726936
108 32 3 0 5.43138603374362 0.339332519043237 5.69809685577638
109 32 4 0 6.39138603374362 0.339332519043237 5.69809685577638
110 32 3 0 6.63138603374362 -0.590667480956763 5.69809685577638
111 33 3 0 0.952443015268073 9.89943057223223 3.02528918953612
112 33 4 0 1.91244301526807 9.89943057223223 3.02528918953612
113 33 3 0 2.15244301526807 8.96943057223223 3.02528918953612
114 34 3 0 6.85160144043155 6.06234342599288 13.7873144319747
115 34 4 0 7.81160144043155 6.06234342599288 13.7873144319747
116 34 3 0 8.05160144043155 5.13234342599288 13.7873144319747
117 35 3 0 4.31147695097141 2.82894304645248 8.55884632444941
118 35 4 0 5.27147695097141 2.82894304645248 8.55884632444941
119 35 3 0 5.51147695097141 1.89894304645248 8.55884632444941
120 36 3 0 11.9836232105456 7.15417365700938 8.82351524778642
121 36 4 0 12.9436232105456 7.15417365700938 8.82351524778642
122 36 3 0 13.1836232105456 6.22417365700938 8.82351524778642
123 37 3 0 10.9659142994508 8.70128421852365 8.01382874837145
124 37 4 0 11.9259142994508 8.70128421852365 8.01382874837145
125 37 3 0 12.1659142994508 7.77128421852365 8.01382874837145
126 38 3 0 7.70589033767581 6.88527177827433 0.950835761614144
127 38 4 0 8.66589033767581 6.88527177827433 0.950835761614144
128 38 3 0 8.90589033767581 5.95527177827433 0.950835761614144
129 39 3 0 10.8234899367392 10.8309635372739 1.81211037794128
130 39 4 0 11.7834899367392 10.8309635372739 1.81211037794128
131 39 3 0 12.0234899367392 9.90096353727393 1.81211037794128
132 40 3 0 6.75085385606624 0.321513130739331 5.41058579343371
133 40 4 0 7.71085385606624 0.321513130739331 5.41058579343371
134 40 3 0 7.95085385606624 -0.608486869260669 5.41058579343371
135 41 3 0 13.7846154165175 14.8264943265263 9.2747254553251
136 41 4 0 14.7446154165175 14.8264943265263 9.2747254553251
137 41 3 0 14.9846154165175 13.8964943265263 9.2747254553251
138 42 3 0 -0.086164585808292 8.80453823291697 14.0548216947354
139 42 4 0 0.873835414191708 8.80453823291697 14.0548216947354
140 42 3 0 1.11383541419171 7.87453823291697 14.0548216947354
141 43 3 0 1.92917989494279 2.16694942483678 4.59287815494463
142 43 4 0 2.88917989494279 2.16694942483678 4.59287815494463
143 43 3 0 3.12917989494279 1.23694942483678 4.59287815494463
144 44 3 0 2.99921419166029 0.483469262663275 6.55901061021723
145 44 4 0 3.95921419166029 0.483469262663275 6.55901061021723
146 44 3 0 4.19921419166029 -0.446530737336725 6.55901061021723
147 45 3 0 9.68527167264372 12.2632526808325 14.3599281460047
148 45 4 0 10.6452716726437 12.2632526808325 14.3599281460047
149 45 3 0 10.8852716726437 11.3332526808325 14.3599281460047
150 46 3 0 7.6097939307522 9.634375980068 1.1172751779668
151 46 4 0 8.5697939307522 9.634375980068 1.1172751779668
152 46 3 0 8.8097939307522 8.704375980068 1.1172751779668
153 47 3 0 11.8140879382566 4.97689822846092 6.96633006096818
154 47 4 0 12.7740879382566 4.97689822846092 6.96633006096818
155 47 3 0 13.0140879382566 4.04689822846092 6.96633006096818
156 48 3 0 6.48000726403669 4.37555986148305 12.9288243746851
157 48 4 0 7.44000726403669 4.37555986148305 12.9288243746851
158 48 3 0 7.68000726403669 3.44555986148305 12.9288243746851
159 49 3 0 5.78231992593035 12.9530048432667 12.6287365809549
160 49 4 0 6.74231992593035 12.9530048432667 12.6287365809549
161 49 3 0 6.98231992593035 12.0230048432667 12.6287365809549
162 50 3 0 4.19670740651898 7.757547132615 7.00693050515838
163 50 4 0 5.15670740651898 7.757547132615 7.00693050515838
164 50 3 0 5.39670740651898 6.827547132615 7.00693050515838
165 51 3 0 3.03520687317476 0.314292383091524 10.938782900339
166 51 4 0 3.99520687317476 0.314292383091524 10.938782900339
167 51 3 0 4.23520687317476 -0.615707616908476 10.938782900339
168 52 3 0 7.79970418123528 1.72593367559835 9.65042985510081
169 52 4 0 8.75970418123528 1.72593367559835 9.65042985510081
170 52 3 0 8.99970418123528 0.795933675598353 9.65042985510081
171 53 3 0 5.29470729103312 9.36027267290279 14.426122274017
172 53 4 0 6.25470729103312 9.36027267290279 14.426122274017
173 53 3 0 6.49470729103312 8.43027267290279 14.426122274017
174 54 3 0 1.18825397497974 6.35079903801903 1.18410206632689
175 54 4 0 2.14825397497974 6.35079903801903 1.18410206632689
176 54 3 0 2.38825397497974 5.42079903801903 1.18410206632689
177 55 3 0 7.08053695198149 8.49419129354879 1.88997475197539
178 55 4 0 8.04053695198149 8.49419129354879 1.88997475197539
179 55 3 0 8.28053695198149 7.56419129354879 1.88997475197539
180 56 3 0 10.4129546710476 3.54291111038998 3.67027053725906
181 56 4 0 11.3729546710476 3.54291111038998 3.67027053725906
182 56 3 0 11.6129546710476 2.61291111038998 3.67027053725906
183 57 3 0 5.32117299662903 12.9141853055358 11.8755627342034
184 57 4 0 6.28117299662903 12.9141853055358 11.8755627342034
185 57 3 0 6.52117299662903 11.9841853055358 11.8755627342034
186 58 3 0 2.16573317346163 13.6913401195221 12.1591590740718
187 58 4 0 3.12573317346163 13.6913401195221 12.1591590740718
188 58 3 0 3.36573317346163 12.7613401195221 12.1591590740718
189 59 3 0 2.60010962418281 7.84567985491827 6.77693037665449
190 59 4 0 3.56010962418281 7.84567985491827 6.77693037665449
191 59 3 0 3.80010962418281 6.91567985491827 6.77693037665449
192 60 3 0 8.38312572028488 7.80228946282528 5.18936349079013
193 60 4 0 9.34312572028488 7.80228946282528 5.18936349079013
194 60 3 0 9.58312572028488 6.87228946282528 5.18936349079013
195 61 3 0 1.91715918757953 4.48823483468965 6.4135843666736
196 61 4 0 2.87715918757953 4.48823483468965 6.4135843666736
197 61 3 0 3.11715918757953 3.55823483468965 6.4135843666736
198 62 3 0 7.45887312965468 9.74075074115768 9.49420839431696
199 62 4 0 8.41887312965468 9.74075074115768 9.49420839431696
200 62 3 0 8.65887312965468 8.81075074115768 9.49420839431696
201 63 3 0 2.77420168320648 5.6797268513497 3.4451616439037
202 63 4 0 3.73420168320648 5.6797268513497 3.4451616439037
203 63 3 0 3.97420168320648 4.7497268513497 3.4451616439037
204 64 3 0 8.36947640564293 11.8580938507244 0.223279116908088
205 64 4 0 9.32947640564293 11.8580938507244 0.223279116908088
206 64 3 0 9.56947640564293 10.9280938507244 0.223279116908088
207 65 3 0 8.52298633821309 6.93490360438824 3.1118831585627
208 65 4 0 9.48298633821309 6.93490360438824 3.1118831585627
209 65 3 0 9.72298633821309 6.00490360438824 3.1118831585627
210 66 3 0 1.318735805545 5.69143440382555 4.34989563538693
211 66 4 0 2.278735805545 5.69143440382555 4.34989563538693
212 66 3 0 2.518735805545 4.76143440382555 4.34989563538693
213 67 3 0 8.99278368844651 5.89878885116428 3.68638165527955
214 67 4 0 9.95278368844651 5.89878885116428 3.68638165527955
215 67 3 0 10.1927836884465 4.96878885116428 3.68638165527955
216 68 3 0 4.64103796795942 10.2078829954285 10.4853270272724
217 68 4 0 5.60103796795942 10.2078829954285 10.4853270272724
218 68 3 0 5.84103796795942 9.27788299542852 10.4853270272724
219 69 3 0 3.07287114366889 1.19886836543679 1.68172529898584
220 69 4 0 4.03287114366889 1.19886836543679 1.68172529898584
221 69 3 0 4.27287114366889 0.268868365436792 1.68172529898584
222 70 3 0 8.61313844259828 5.48911684466526 1.87668828642927
223 70 4 0 9.57313844259828 5.48911684466526 1.87668828642927
224 70 3 0 9.81313844259828 4.55911684466526 1.87668828642927
225 71 3 0 6.17678414608352 0.366482111103833 10.7102551893331
226 71 4 0 7.13678414608352 0.366482111103833 10.7102551893331
227 71 3 0 7.37678414608352 -0.563517888896167 10.7102551893331
228 72 3 0 7.8882761362195 9.06404802151024 1.066835912643
229 72 4 0 8.8482761362195 9.06404802151024 1.066835912643
230 72 3 0 9.0882761362195 8.13404802151024 1.066835912643
231 73 3 0 13.8606108182296 9.11499603343196 6.84375244891271
232 73 4 0 14.8206108182296 9.11499603343196 6.84375244891271
233 73 3 0 15.0606108182296 8.18499603343196 6.84375244891271
234 74 3 0 9.49867431350984 14.8365306497458 9.94015934877098
235 74 4 0 10.4586743135098 14.8365306497458 9.94015934877098
236 74 3 0 10.6986743135098 13.9065306497458 9.94015934877098
237 75 3 0 12.5211819091067 8.49028462119401 1.29802983719856
238 75 4 0 13.4811819091067 8.49028462119401 1.29802983719856
239 75 3 0 13.7211819091067 7.560284621194 1.29802983719856
240 76 3 0 6.52813598790206 13.5837785053905 11.2759515002836
241 76 4 0 7.48813598790206 13.5837785053905 11.2759515002836
242 76 3 0 7.72813598790206 12.6537785053905 11.2759515002836
243 77 3 0 9.54299764285795 2.69293405622244 5.02027639886364
244 77 4 0 10.502997642858 2.69293405622244 5.02027639886364
245 77 3 0 10.742997642858 1.76293405622244 5.02027639886364
246 78 3 0 13.4266865397524 14.3460015106853 11.5556695510168
247 78 4 0 14.3866865397524 14.3460015106853 11.5556695510168
248 78 3 0 14.6266865397524 13.4160015106853 11.5556695510168
249 79 3 0 6.29804698328488 1.37195279746316 4.49611776857637
250 79 4 0 7.25804698328488 1.37195279746316 4.49611776857637
251 79 3 0 7.49804698328488 0.441952797463164 4.49611776857637
252 80 3 0 3.38012594657019 9.94515723473392 7.22434943541884
253 80 4 0 4.34012594657019 9.94515723473392 7.22434943541884
254 80 3 0 4.58012594657019 9.01515723473393 7.22434943541884
255 81 3 0 5.18939498855732 11.3205623933487 7.26825840887614
256 81 4 0 6.14939498855732 11.3205623933487 7.26825840887614
257 81 3 0 6.38939498855732 10.3905623933487 7.26825840887614
258 82 3 0 9.43062829130329 12.501072475398 6.96925723110326
259 82 4 0 10.3906282913033 12.501072475398 6.96925723110326
260 82 3 0 10.6306282913033 11.571072475398 6.96925723110326
261 83 3 0 12.9477278287243 12.0877020519134 10.4114499036223
262 83 4 0 13.9077278287243 12.0877020519134 10.4114499036223
263 83 3 0 14.1477278287243 11.1577020519134 10.4114499036223
264 84 3 0 8.34686826841906 10.7475311802141 11.8737098865677
265 84 4 0 9.30686826841906 10.7475311802141 11.8737098865677
266 84 3 0 9.54686826841906 9.81753118021414 11.8737098865677
267 85 3 0 0.702176091000438 14.0535555644333 8.99691045284271
268 85 4 0 1.66217609100044 14.0535555644333 8.99691045284271
269 85 3 0 1.90217609100044 13.1235555644333 8.99691045284271
270 86 3 0 13.9932545930799 6.1093653754238 9.18692233040929
271 86 4 0 14.9532545930799 6.1093653754238 9.18692233040929
272 86 3 0 15.1932545930799 5.1793653754238 9.18692233040929
273 87 3 0 3.15850263970904 4.49613608810119 11.9000247109216
274 87 4 0 4.11850263970904 4.49613608810119 11.9000247109216
275 87 3 0 4.35850263970904 3.56613608810119 11.9000247109216
276 88 3 0 11.9424165242538 9.86316682695411 14.0136231458746
277 88 4 0 12.9024165242538 9.86316682695411 14.0136231458746
278 88 3 0 13.1424165242538 8.93316682695411 14.0136231458746
279 89 3 0 12.8409169432428 14.4420948512293 2.00140124419704
280 89 4 0 13.8009169432428 14.4420948512293 2.00140124419704
281 89 3 0 14.0409169432428 13.5120948512293 2.00140124419704
282 90 3 0 9.55920063352212 10.4862542664073 4.25668419222347
283 90 4 0 10.5192006335221 10.4862542664073 4.25668419222347
284 90 3 0 10.7592006335221 9.55625426640734 4.25668419222347
285 91 3 0 7.43446879598312 5.31034462776966 6.94229194312356
286 91 4 0 8.39446879598312 5.31034462776966 6.94229194312356
287 91 3 0 8.63446879598312 4.38034462776966 6.94229194312356
288 92 3 0 13.210040281266 4.15303665603511 0.350060131167993
289 92 4 0 14.170040281266 4.15303665603511 0.350060131167993
290 92 3 0 14.410040281266 3.22303665603511 0.350060131167993
291 93 3 0 1.00895288444124 2.42708484916016 7.26012154715136
292 93 4 0 1.96895288444124 2.42708484916016 7.26012154715136
293 93 3 0 2.20895288444124 1.49708484916016 7.26012154715136
294 94 3 0 10.2618644297775 7.42693008663133 11.3938219402917
295 94 4 0 11.2218644297775 7.42693008663133 11.3938219402917
296 94 3 0 11.4618644297775 6.49693008663133 11.3938219402917
297 95 3 0 1.90649080948904 13.0120621858537 0.61527221929282
298 95 4 0 2.86649080948904 13.0120621858537 0.61527221929282
299 95 3 0 3.10649080948904 12.0820621858537 0.61527221929282
300 96 3 0 9.88266117565334 0.742516698492691 7.90985602769069
301 96 4 0 10.8426611756533 0.742516698492691 7.90985602769069
302 96 3 0 11.0826611756533 -0.187483301507309 7.90985602769069
303 97 3 0 6.6650741086062 15.0558030318376 12.0634222857188
304 97 4 0 7.6250741086062 15.0558030318376 12.0634222857188
305 97 3 0 7.8650741086062 14.1258030318376 12.0634222857188
306 98 3 0 10.9143899234198 6.57949787605554 6.84055159566924
307 98 4 0 11.8743899234198 6.57949787605554 6.84055159566924
308 98 3 0 12.1143899234198 5.64949787605554 6.84055159566924
309 99 3 0 7.86408489148133 2.40850754821673 0.675611804472283
310 99 4 0 8.82408489148133 2.40850754821673 0.675611804472283
311 99 3 0 9.06408489148133 1.47850754821673 0.675611804472283
312 100 3 0 5.31439800906926 6.27464109024964 14.2846412176732
313 100 4 0 6.27439800906926 6.27464109024964 14.2846412176732
314 100 3 0 6.51439800906926 5.34464109024964 14.2846412176732
315 101 3 0 14.0654984749574 4.19119472539984 2.85657792119309
316 101 4 0 15.0254984749574 4.19119472539984 2.85657792119309
317 101 3 0 15.2654984749574 3.26119472539984 2.85657792119309
318 102 3 0 0.79338743744418 14.2489095746446 5.08142404491082
319 102 4 0 1.75338743744418 14.2489095746446 5.08142404491082
320 102 3 0 1.99338743744418 13.3189095746446 5.08142404491082
321 103 3 0 10.3461318304483 6.61079132388346 0.508726858533919
322 103 4 0 11.3061318304483 6.61079132388346 0.508726858533919
323 103 3 0 11.5461318304483 5.68079132388346 0.508726858533919
324 104 3 0 7.05887655654922 7.70589143660851 3.33366251550615
325 104 4 0 8.01887655654922 7.70589143660851 3.33366251550615
326 104 3 0 8.25887655654922 6.77589143660851 3.33366251550615
327 105 3 0 9.43125701087527 6.74524701474234 5.44338336680084
328 105 4 0 10.3912570108753 6.74524701474234 5.44338336680084
329 105 3 0 10.6312570108753 5.81524701474234 5.44338336680084
330 106 3 0 4.73176293700933 5.51850375527516 2.71047722431831
331 106 4 0 5.69176293700933 5.51850375527516 2.71047722431831
332 106 3 0 5.93176293700933 4.58850375527516 2.71047722431831
333 107 3 0 11.6907810133137 8.76544942305423 14.3468812038191
334 107 4 0 12.6507810133137 8.76544942305423 14.3468812038191
335 107 3 0 12.8907810133137 7.83544942305423 14.3468812038191
336 108 3 0 12.5405846668594 0.741573790265247 10.9309173887596
337 108 4 0 13.5005846668594 0.741573790265247 10.9309173887596
338 108 3 0 13.7405846668594 -0.188426209734753 10.9309173887596
339 109 3 0 2.04006384752691 3.84427590802312 7.99290082301013
340 109 4 0 3.00006384752691 3.84427590802312 7.99290082301013
341 109 3 0 3.24006384752691 2.91427590802312 7.99290082301013
342 110 3 0 1.97655198091641 11.1170872898679 10.3751828579698
343 110 4 0 2.93655198091641 11.1170872898679 10.3751828579698
344 110 3 0 3.17655198091641 10.1870872898679 10.3751828579698
345 111 3 0 12.5550807038974 2.54657109658234 8.9910873840563
346 111 4 0 13.5150807038974 2.54657109658234 8.9910873840563
347 111 3 0 13.7550807038974 1.61657109658234 8.9910873840563
348 112 3 0 2.89185129848309 12.8226587715931 5.55248828139156
349 112 4 0 3.85185129848309 12.8226587715931 5.55248828139156
350 112 3 0 4.09185129848309 11.8926587715931 5.55248828139156
351 113 3 0 4.71451442965306 7.90566398803145 2.93143407208845
352 113 4 0 5.67451442965306 7.90566398803145 2.93143407208845
353 113 3 0 5.91451442965306 6.97566398803145 2.93143407208845
354 114 3 0 12.6772969581373 4.62122805806808 5.18124518101104
355 114 4 0 13.6372969581373 4.62122805806808 5.18124518101104
356 114 3 0 13.8772969581373 3.69122805806808 5.18124518101104
357 115 3 0 0.494551575249061 2.63068358920515 7.63322728103958
358 115 4 0 1.45455157524906 2.63068358920515 7.63322728103958
359 115 3 0 1.69455157524906 1.70068358920515 7.63322728103958
360 116 3 0 9.25651331475936 13.0987248410843 10.785302039003
361 116 4 0 10.2165133147594 13.0987248410843 10.785302039003
362 116 3 0 10.4565133147594 12.1687248410843 10.785302039003
363 117 3 0 11.5375531667098 12.494478554409 1.31593462312594
364 117 4 0 12.4975531667098 12.494478554409 1.31593462312594
365 117 3 0 12.7375531667098 11.564478554409 1.31593462312594
366 118 3 0 6.61737741946243 5.04652028595097 14.6277878817637
367 118 4 0 7.57737741946243 5.04652028595097 14.6277878817637
368 118 3 0 7.81737741946243 4.11652028595097 14.6277878817637
369 119 3 0 2.4809446027223 13.5302851993497 2.38293972448446
370 119 4 0 3.4409446027223 13.5302851993497 2.38293972448446
371 119 3 0 3.6809446027223 12.6002851993497 2.38293972448446
372 120 3 0 11.1493915230688 11.9182275588997 6.31581802270375
373 120 4 0 12.1093915230688 11.9182275588997 6.31581802270375
374 120 3 0 12.3493915230688 10.9882275588997 6.31581802270375
375 121 3 0 4.23595896150917 11.0616042771749 4.51285100891255
376 121 4 0 5.19595896150917 11.0616042771749 4.51285100891255
377 121 3 0 5.43595896150917 10.1316042771749 4.51285100891255
378 122 3 0 4.64520247114822 14.4888502736017 5.08676266414113
379 122 4 0 5.60520247114822 14.4888502736017 5.08676266414113
380 122 3 0 5.84520247114822 13.5588502736017 5.08676266414113
381 123 3 0 3.57915818036534 1.08919891220517 0.629615098005161
382 123 4 0 4.53915818036534 1.08919891220517 0.629615098005161
383 123 3 0 4.77915818036534 0.159198912205175 0.629615098005161
384 124 3 0 9.74262412564829 0.540062280315906 5.77966511598788
385 124 4 0 10.7026241256483 0.540062280315906 5.77966511598788
386 124 3 0 10.9426241256483 -0.389937719684094 5.77966511598788
387 125 3 0 12.7944430655055 13.6995858516917 2.06495207617991
388 125 4 0 13.7544430655055 13.6995858516917 2.06495207617991
389 125 3 0 13.9944430655055 12.7695858516917 2.06495207617991
390 126 3 0 11.1751102159917 9.87452251411974 7.4066789878998
391 126 4 0 12.1351102159917 9.87452251411974 7.4066789878998
392 126 3 0 12.3751102159917 8.94452251411975 7.4066789878998
393 127 3 0 3.48793888508342 3.10838184011169 7.22822420415469
394 127 4 0 4.44793888508342 3.10838184011169 7.22822420415469
395 127 3 0 4.68793888508342 2.17838184011169 7.22822420415469
396 128 3 0 11.6667852869444 7.09728021448478 13.0504757270683
397 128 4 0 12.6267852869444 7.09728021448478 13.0504757270683
398 128 3 0 12.8667852869444 6.16728021448478 13.0504757270683
399 129 3 0 -0.150059236474335 10.6174625635054 4.76909846300259
400 129 4 0 0.809940763525665 10.6174625635054 4.76909846300259
401 129 3 0 1.04994076352566 9.6874625635054 4.76909846300259
402 130 3 0 9.58291446950287 0.498410640694201 11.823190972209
403 130 4 0 10.5429144695029 0.498410640694201 11.823190972209
404 130 3 0 10.7829144695029 -0.431589359305799 11.823190972209
405 131 3 0 1.7972510300763 2.41927369073033 9.54979741713032
406 131 4 0 2.7572510300763 2.41927369073033 9.54979741713032
407 131 3 0 2.9972510300763 1.48927369073033 9.54979741713032
408 132 3 0 6.68458777640015 2.81714663532563 1.57652435358614
409 132 4 0 7.64458777640015 2.81714663532563 1.57652435358614
410 132 3 0 7.88458777640015 1.88714663532563 1.57652435358614
411 133 3 0 0.669294356340542 12.9886082098261 7.63445728342049
412 133 4 0 1.62929435634054 12.9886082098261 7.63445728342049
413 133 3 0 1.86929435634054 12.0586082098261 7.63445728342049
414 134 3 0 9.209020232521 1.41833632526919 5.70677150040865
415 134 4 0 10.169020232521 1.41833632526919 5.70677150040865
416 134 3 0 10.409020232521 0.488336325269192 5.70677150040865
417 135 3 0 14.1424950356316 7.92750443023629 2.85628581885248
418 135 4 0 15.1024950356316 7.92750443023629 2.85628581885248
419 135 3 0 15.3424950356316 6.99750443023629 2.85628581885248
420 136 3 0 8.0908441606164 12.8353270054236 0.0444612710271031
421 136 4 0 9.0508441606164 12.8353270054236 0.0444612710271031
422 136 3 0 9.2908441606164 11.9053270054236 0.0444612710271031
423 137 3 0 6.77847034108825 7.8080438943021 7.32457321370021
424 137 4 0 7.73847034108825 7.8080438943021 7.32457321370021
425 137 3 0 7.97847034108825 6.8780438943021 7.32457321370021
426 138 3 0 12.3506852464937 8.83141065639444 13.6083805945236
427 138 4 0 13.3106852464937 8.83141065639444 13.6083805945236
428 138 3 0 13.5506852464937 7.90141065639444 13.6083805945236
429 139 3 0 -0.0241602149605751 2.39041264675558 10.6038634828292
430 139 4 0 0.935839785039425 2.39041264675558 10.6038634828292
431 139 3 0 1.17583978503942 1.46041264675558 10.6038634828292
432 140 3 0 9.0683970674593 11.617705687359 2.34514669398777
433 140 4 0 10.0283970674593 11.617705687359 2.34514669398777
434 140 3 0 10.2683970674593 10.687705687359 2.34514669398777
435 141 3 0 0.601327843470499 12.1798168313131 10.807973491028
436 141 4 0 1.5613278434705 12.1798168313131 10.807973491028
437 141 3 0 1.8013278434705 11.2498168313131 10.807973491028
438 142 3 0 3.30109083719552 6.92818464635871 11.100379525451
439 142 4 0 4.26109083719552 6.92818464635871 11.100379525451
440 142 3 0 4.50109083719552 5.99818464635871 11.100379525451
441 143 3 0 4.8401996043697 7.6798314151261 3.46908333711326
442 143 4 0 5.8001996043697 7.6798314151261 3.46908333711326
443 143 3 0 6.0401996043697 6.7498314151261 3.46908333711326
444 144 3 0 1.8657181835454 4.19501483714208 9.49901111307554
445 144 4 0 2.8257181835454 4.19501483714208 9.49901111307554
446 144 3 0 3.0657181835454 3.26501483714208 9.49901111307554
447 145 3 0 7.17107172866352 14.1474373677652 11.4248072728515
448 145 4 0 8.13107172866352 14.1474373677652 11.4248072728515
449 145 3 0 8.37107172866352 13.2174373677652 11.4248072728515
450 146 3 0 10.56007357358 9.25935806514695 7.34517885139212
451 146 4 0 11.52007357358 9.25935806514695 7.34517885139212
452 146 3 0 11.76007357358 8.32935806514695 7.34517885139212
453 147 3 0 6.38072963498533 8.61930201453157 4.31204076390713
454 147 4 0 7.34072963498533 8.61930201453157 4.31204076390713
455 147 3 0 7.58072963498533 7.68930201453157 4.31204076390713
456 148 3 0 8.86638131967746 13.6115116734896 0.245335050858557
457 148 4 0 9.82638131967746 13.6115116734896 0.245335050858557
458 148 3 0 10.0663813196775 12.6815116734896 0.245335050858557
459 149 3 0 0.31471870534122 1.34307599551044 3.88136233552359
460 149 4 0 1.27471870534122 1.34307599551044 3.88136233552359
461 149 3 0 1.51471870534122 0.413075995510444 3.88136233552359
462 150 3 0 9.31078822279349 1.14131514838897 2.89785950677469
463 150 4 0 10.2707882227935 1.14131514838897 2.89785950677469
464 150 3 0 10.5107882227935 0.211315148388967 2.89785950677469
465 151 3 0 7.81407680871896 2.66325753688812 9.0317514189519
466 151 4 0 8.77407680871896 2.66325753688812 9.0317514189519
467 151 3 0 9.01407680871896 1.73325753688812 9.0317514189519
468 152 3 0 3.31719977592118 8.5632051356975 10.3499775251839
469 152 4 0 4.27719977592118 8.5632051356975 10.3499775251839
470 152 3 0 4.51719977592118 7.6332051356975 10.3499775251839
471 153 3 0 1.64716608633287 8.43360942945816 10.827672004234
472 153 4 0 2.60716608633287 8.43360942945816 10.827672004234
473 153 3 0 2.84716608633287 7.50360942945816 10.827672004234
474 154 3 0 8.07141829325817 11.247285592081 12.5810020195786
475 154 4 0 9.03141829325818 11.247285592081 12.5810020195786
476 154 3 0 9.27141829325818 10.317285592081 12.5810020195786
477 155 3 0 4.63099173313938 14.6251780730113 1.96576926391572