LAMMPS (29 Sep 2021 - Update 1)
# Test LAMMPS input file for single DeFDe

# Initialize simulation

clear

units real
atom_style full
boundary p p p
dielectric 1
special_bonds dreiding

bond_style harmonic
angle_style harmonic
dihedral_style harmonic
improper_style umbrella
pair_style hybrid/overlay hbond/dreiding/lj 4 9.0 11.0 90 lj/cut 8.50000

# Read data file
read_data frag5.dat
Reading data file ...
  triclinic box = (0.0000000 0.0000000 0.0000000) to (15.000000 15.000000 15.000000) with tilt (0.0000000 0.0000000 0.0000000)
  2 by 4 by 4 MPI processor grid
  reading atoms ...
  1517 atoms
  scanning bonds ...
  4 = max bonds/atom
  scanning angles ...
  6 = max angles/atom
  scanning dihedrals ...
  9 = max dihedrals/atom
  reading bonds ...
  1016 bonds
  reading angles ...
  530 angles
  reading dihedrals ...
  36 dihedrals
Finding 1-2 1-3 1-4 neighbors ...
  special bond factors lj:    0        0        1       
  special bond factors coul:  0        0        1       
     4 = max # of 1-2 neighbors
     6 = max # of 1-3 neighbors
    10 = max # of special neighbors
  special bonds CPU = 0.002 seconds
  read_data CPU = 0.016 seconds

# Dreiding potential information

bond_coeff 1 350 1.53
bond_coeff 2 350 1.09
bond_coeff 3 350 0.98

angle_coeff 1 50 109.471
angle_coeff 2 50 104.51

dihedral_coeff 1 0.111111111111111 -1 3

improper_coeff 1 40 0

pair_coeff 1 1 lj/cut 0.0951 3.8983
pair_coeff 1 2 lj/cut 0.0380199947396104 3.52917391183829
pair_coeff 1 3 lj/cut 0.00308382878902186 3.52806914614779
pair_coeff 1 4 lj/cut 0.0953995283007206 3.64309650983885
pair_coeff 2 2 lj/cut 0.0152 3.195
pair_coeff 2 3 lj/cut 0.0012328828005938 3.19399984345648
pair_coeff 2 4 lj/cut 0.0381397430510485 3.29813538230316
pair_coeff 3 3 lj/cut 1e-04 3.193
pair_coeff 3 4 lj/cut 0.0030935416596516 3.29710294046152
pair_coeff 4 4 lj/cut 0.0957 3.4046
pair_coeff 4 4 hbond/dreiding/lj 3 j 9.50 2.75 4 9.0 11.0 90

neighbor 2 bin
neigh_modify every 2 one 10000

# Gemoetric relaxation
fix 1 all box/relax iso 1.0 vmax 0.001
minimize 1.0e-4 1.0e-6 10000 10000
WARNING: Using 'neigh_modify every 1 delay 0 check yes' setting during minimization (../min.cpp:188)
Neighbor list info ...
  update every 1 steps, delay 0 steps, check yes
  max neighbors/atom: 10000, page size: 100000
  master list distance cutoff = 13
  ghost atom cutoff = 13
  binsize = 6.5, bins = 3 3 3
  3 neighbor lists, perpetual/occasional/extra = 3 0 0
  (1) pair hbond/dreiding/lj, perpetual, skip from (3)
      attributes: full, newton on
      pair build: skip
      stencil: none
      bin: none
  (2) pair lj/cut, perpetual, half/full from (3)
      attributes: half, newton on
      pair build: halffull/newton
      stencil: none
      bin: none
  (3) neighbor class addition, perpetual
      attributes: full, newton on
      pair build: full/bin
      stencil: full/bin/3d
      bin: standard
Per MPI rank memory allocation (min/avg/max) = 14.14 | 14.49 | 14.92 Mbytes
Step Temp E_pair E_mol TotEng Press Volume 
       0            0 5.4770199e+20    202.86633 5.4770199e+20 4.4509698e+22         3375 
    5432            0   -961.24466     34.79268   -926.45198     86.75907    38369.369 
Loop time of 4.86161 on 32 procs for 5432 steps with 1517 atoms

100.0% CPU use with 32 MPI tasks x no OpenMP threads

Minimization stats:
  Stopping criterion = energy tolerance
  Energy initial, next-to-last, final = 
    5.47701992696913e+20  -925.858299648602  -925.941622318415
  Force two-norm initial, final = 2.1750577e+23 96.462682
  Force max component initial, final = 1.5296698e+23 64.026275
  Final line search alpha, max atom move = 1.2690841e-05 0.00081254724
  Iterations, force evaluations = 5432 5447

MPI task timing breakdown:
Section |  min time  |  avg time  |  max time  |%varavg| %total
---------------------------------------------------------------
Pair    | 1.0214     | 2.6083     | 4.0594     |  41.0 | 53.65
Bond    | 0.0052143  | 0.011732   | 0.026656   |   3.5 |  0.24
Neigh   | 0.095714   | 0.096201   | 0.096527   |   0.1 |  1.98
Comm    | 0.34709    | 1.7959     | 3.3834     |  49.5 | 36.94
Output  | 0          | 0          | 0          |   0.0 |  0.00
Modify  | 0          | 0          | 0          |   0.0 |  0.00
Other   |            | 0.3495     |            |       |  7.19

Nlocal:        47.4062 ave          66 max          19 min
Histogram: 1 0 1 4 4 7 4 3 6 2
Nghost:        1898.00 ave        1935 max        1858 min
Histogram: 3 0 4 4 4 5 1 5 5 1
Neighs:        4823.59 ave        7807 max        1822 min
Histogram: 1 1 4 6 7 2 4 4 0 3

Total # of neighbors = 154355
Ave neighs/atom = 101.75016
Ave special neighs/atom = 2.0382334
Neighbor list builds = 94
Dangerous builds = 0

# MD simulation
velocity all create 300.0 12345 rot yes dist gaussian
timestep 1.0
fix 2 all nvt temp 300.0 300.0 1

# Compute interaction energy
group WAT molecule <> 2 501
1500 atoms in group WAT
group MOL molecule 1
17 atoms in group MOL

compute w WAT group/group MOL pair yes
fix 3 all ave/time 10 5 100 c_w file outa

# Outputs
thermo 100 # Output thermodynamic data every nth step
#dump mf1 all xyz 10000 mol_*.xyz

# Run
run 1000000
Neighbor list info ...
  update every 2 steps, delay 10 steps, check yes
  max neighbors/atom: 10000, page size: 100000
  master list distance cutoff = 13
  ghost atom cutoff = 13
  binsize = 6.5, bins = 6 6 6
  4 neighbor lists, perpetual/occasional/extra = 3 1 0
  (1) pair hbond/dreiding/lj, perpetual, skip from (4)
      attributes: full, newton on
      pair build: skip
      stencil: none
      bin: none
  (2) pair lj/cut, perpetual, half/full from (4)
      attributes: half, newton on
      pair build: halffull/newton
      stencil: none
      bin: none
  (3) compute group/group, occasional, copy from (2)
      attributes: half, newton on
      pair build: copy
      stencil: none
      bin: none
  (4) neighbor class addition, perpetual
      attributes: full, newton on
      pair build: full/bin
      stencil: full/bin/3d
      bin: standard
Per MPI rank memory allocation (min/avg/max) = 12.99 | 13.06 | 13.48 Mbytes
Step Temp E_pair E_mol TotEng Press Volume 
    5432          300   -961.24466     34.79268    429.22043    1701.8722    38369.369 
    5500    301.79518   -1029.4485    219.52297    553.85914    1886.6513    38369.369 
    5600    308.58656   -1079.3795    219.76269    534.85747    1271.7242    38369.369 
    5700    293.08833   -1078.4556    176.02541    422.00898    797.01961    38369.369 
    5800    288.56882   -1057.1338    202.24952    449.13166    581.39409    38369.369 
    5900    290.78301   -1056.5735     193.4903    450.93853    560.57446    38369.369 
    6000    298.54548   -1061.6122     184.6809    472.16827    484.00262    38369.369 
    6100    306.16036   -1056.7062    203.74737    530.55167   -156.79455    38369.369 
    6200    297.13763   -1079.6381    196.73863    459.83815   -1.9737315    38369.369 
    6300    301.50784   -1074.6933    206.24736    494.04031    643.49055    38369.369 
    6400    298.92736   -1064.1006    198.81992     485.5446   -82.578857    38369.369 
    6500    301.20159    -1068.204     194.1633    487.06154    490.16806    38369.369 
    6600    294.28375   -1057.6467    205.18392    477.37847     120.5637    38369.369 
    6700    286.23888   -1062.6563    201.68391    432.51478    112.19718    38369.369 
    6800    295.84885   -1053.4734    222.57221    506.01256     778.7532    38369.369 
    6900    293.99272   -1066.6942    221.86579     483.6977    344.86654    38369.369 
    7000    302.92067   -1094.0836    216.87219    491.65929    488.91373    38369.369 
    7100    309.49888   -1079.3012    215.53954    534.83535    702.38481    38369.369 
    7200    302.91048   -1044.0565    216.57775     541.3459    897.50129    38369.369 
    7300    306.10813   -1117.2549    228.77501    494.79463    1003.3308    38369.369 
    7400    297.48411   -1061.8409    227.83622    510.29866    683.26845    38369.369 
    7500    291.70031   -1081.3353    215.79363     452.6252     536.5194    38369.369 
    7600    309.83241   -1120.0851     213.5557    493.57478     60.19071    38369.369 
    7700     298.7777   -1055.5077     218.1907    512.83198    755.18485    38369.369 
    7800    303.09128   -1063.0916    230.61418    537.16416    337.39543    38369.369 
    7900    292.52425   -1089.0999    221.94377    454.73406   -37.830584    38369.369 
    8000    297.14596   -1096.5958    232.68484    478.86433    149.58391    38369.369 
    8100    291.82455   -1088.3047    233.48394    463.90753    215.78448    38369.369 
    8200    299.21065    -1074.284    231.18987    509.01132    269.88592    38369.369 
    8300    294.48774   -1077.3079     230.6955    484.15064    707.42819    38369.369 
    8400    308.00055   -1113.5198    233.72398    512.03036    974.73083    38369.369 
    8500    305.28655   -1125.0492    235.24534    489.75798     471.5694    38369.369 
    8600    310.42298    -1096.325     243.4438    549.89164    795.98615    38369.369 
    8700    294.09208   -1121.0203    240.34471    448.29947     411.5217    38369.369 
    8800    306.41138   -1119.7876    247.30834    512.16555    151.13064    38369.369 
    8900    309.49406   -1064.6101    255.31888    589.28396    968.38652    38369.369 
    9000     307.8531   -1069.6062    251.47718    573.03078    589.52316    38369.369 
    9100    302.93335   -1098.4371    249.30928    519.80015    479.15259    38369.369 
    9200    306.10884   -1075.2901    255.19289    563.18051    633.21796    38369.369 
    9300    300.93821   -1111.0811    242.32038    491.15135    449.17007    38369.369 
    9400     293.8897   -1109.8967    247.04342    465.20721    -59.50399    38369.369 
    9500    306.79836     -1100.73    251.68741    537.35098   -160.01721    38369.369 
    9600    305.40935   -1075.8818    232.21894    536.45391      65.0413    38369.369 
    9700    306.83319   -1083.9508    243.94431    546.54445    239.93134    38369.369 
    9800     299.0252   -1103.9337    234.62099    481.95471    80.162923    38369.369 
    9900     304.3627   -1118.4216    253.84873     510.8142    447.88609    38369.369 
   10000    295.78311   -1127.7223    245.64987    454.54425    178.36935    38369.369 
   10100    292.16352   -1141.7857     252.2089    430.68329   -5.9620073    38369.369 
   10200    295.81866   -1134.3776    250.23836    452.63809    484.47983    38369.369 
   10300    295.89346   -1133.2333    257.50578    461.38779    832.20017    38369.369 
   10400    293.39162   -1101.3983    254.72645    479.13793    561.50396    38369.369 
   10500    287.62319   -1111.9975    271.54144    459.28671    458.55081    38369.369 
   10600     288.3691   -1124.9482    241.37434    419.53964   -69.762049    38369.369 
   10700    310.51819   -1123.1362    254.84801    534.91496    130.01507    38369.369 
   10800    294.68523   -1141.2364    256.42268    446.84173   -244.54647    38369.369 
   10900    295.48719   -1113.9807    259.73187    481.03057   -42.793634    38369.369 
   11000    299.08105   -1071.0075    255.92684     536.4391    123.92487    38369.369 
   11100    318.21022    -1054.692    284.53259    667.80331    439.42224    38369.369 
   11200      298.388   -1054.5732    289.07117    582.88591    500.11294    38369.369 
   11300    295.50539   -1099.0012    264.27875    500.63923    93.589314    38369.369 
   11400    300.67245   -1098.7536    274.90057    534.85816   -100.74574    38369.369 
   11500    298.97066   -1090.8648    272.19569    532.35182    4.7849505    38369.369 
   11600    301.08024   -1098.4047    256.08644    518.23566    67.732764    38369.369 
   11700    296.56383   -1099.3999    285.20805    525.95287    669.67877    38369.369 
   11800    293.26606   -1090.3003    252.88506    487.82713    461.87709    38369.369 
   11900    310.95795   -1051.4031    269.78519    623.57251    506.12634    38369.369 
   12000    290.98361   -1154.2389     273.4348    434.12408     62.22887    38369.369 
   12100    299.50524    -1111.295    262.39578    504.53742    606.11502    38369.369 
   12200     303.1159   -1093.7902     258.6458    534.60845    578.87971    38369.369 
   12300    304.19308   -1144.0611    264.34119    494.90065    603.51604    38369.369 
   12400    301.66102   -1117.5056    254.59821      500.271    103.16133    38369.369 
   12500    296.52262    -1153.135    274.83529    461.65877    478.47248    38369.369 
   12600    296.67871   -1132.2425    263.03501    471.45632    402.16808    38369.369 
   12700    308.00885   -1144.5629     277.0968    524.39759    401.02418    38369.369 
   12800    288.57598   -1127.9292    260.31816    436.43732    409.58959    38369.369 
   12900    300.70161   -1118.3635    276.65518    517.13461    642.88829    38369.369 
   13000    297.72125   -1124.2465    270.13274    491.26117     865.0633    38369.369 
   13100    305.03126   -1083.4818    295.92402    590.85046    1025.5216    38369.369 
   13200    299.99953   -1100.3195    277.45271    532.80348    634.32955    38369.369 
   13300    291.76633   -1130.3701    272.91717    461.01231    365.70568    38369.369 
   13400    297.40435   -1085.7709    285.00134    543.17337    425.35044    38369.369 
   13500    293.78911   -1068.9645    281.23828    539.87976    217.47876    38369.369 
   13600    303.13828   -1114.7967    298.96423    554.02155    190.40608    38369.369 
   13700    297.67214   -1156.7813    283.17577    471.54751    73.160361    38369.369 
   13800    301.91296   -1158.6477    282.87594    488.54511    285.30227    38369.369 
   13900    294.79702   -1157.2298    297.62165    472.55242     173.2982    38369.369 
   14000    309.57413   -1138.1722    274.26672    535.03159   -35.619508    38369.369 
   14100    312.49781   -1111.3223    290.03682    590.86342   -5.6777635    38369.369 
   14200    292.32934   -1114.7665    290.26389     496.5068   -361.36307    38369.369 
   14300    293.19554   -1168.0139    307.00824    463.91807    157.24952    38369.369 
   14400    294.04037    -1191.534    289.77082    426.97821    373.03044    38369.369 
   14500    301.97628   -1140.7598    291.30348    515.14673    702.69672    38369.369 
   14600    306.24156   -1155.0479    293.45959    522.28917    549.87425    38369.369 
   14700    289.96444   -1132.5798    284.57684     462.3197    491.52697    38369.369 
   14800    299.15567    -1189.964    310.95506    472.84803     358.0677    38369.369 
   14900    307.34351   -1156.0871      271.112    503.88192    545.01385    38369.369 
   15000    301.96641   -1162.0506    297.76243    500.27025    190.37939    38369.369 
   15100    304.87616   -1146.1813    302.28267    533.80872     244.1092    38369.369 
   15200    300.02614   -1180.0374    282.42258    458.17565    313.50786    38369.369 
   15300    308.27042   -1139.0319    286.03664    540.05045    406.32453    38369.369 
   15400    305.99635   -1161.7758     289.1138    510.10742   -132.02101    38369.369 
   15500    312.17508    -1136.169    303.41481    577.93626    462.66205    38369.369 
   15600    304.63599   -1146.1871     290.6545    521.08947    293.48529    38369.369 
   15700    306.90813   -1171.7592    288.59302    503.72342    543.02203    38369.369 
   15800    307.41056   -1184.9045    293.42801    497.68352    877.65806    38369.369 
   15900    306.00061   -1149.3467    298.39342    531.83537    647.52903    38369.369 
   16000    306.86914    -1162.556    307.40245    531.55985     438.3075    38369.369 
   16100    294.93247   -1175.2578    294.77712    452.29202    418.17762    38369.369 
   16200    306.96422   -1162.8979    316.69595     540.9411     456.7546    38369.369 
   16300    303.89338   -1181.7248    293.65151    485.19294     425.0132    38369.369 
   16400    294.10005    -1154.361    289.03019     463.6803    573.66698    38369.369 
   16500     298.2398   -1193.1786    313.86061    468.40023    208.79124    38369.369 
   16600    295.68835   -1191.8572    311.66301    455.99427    228.31857    38369.369 
   16700    303.42354   -1185.3665      300.676    486.45254     415.1244    38369.369 
   16800     305.7937   -1156.1494    309.28481    534.98908    381.74431    38369.369 
   16900    299.49533     -1159.88    309.07808    502.58998     83.02434    38369.369 
   17000    299.37976    -1156.919    300.71322    496.66385    122.86361    38369.369 
   17100    288.20688   -1175.3716    325.88276    452.89155    412.71697    38369.369 
   17200    295.25273   -1172.7748    304.51298    465.95807    677.76453    38369.369 
   17300    293.96057   -1191.0312    303.47843    440.82803  0.061212382    38369.369 
   17400     293.9761   -1159.4686    317.94616     486.9285    452.23548    38369.369 
   17500    302.63296   -1138.4006    320.05238    549.22225     6.839377    38369.369 
   17600     296.3471   -1171.1952    303.80579    471.77589   -394.99873    38369.369 
   17700    296.95808   -1201.1089     321.8255     462.6429   -850.25039    38369.369 
   17800     305.8865   -1194.5148    318.91409    506.67227    208.98272    38369.369 
   17900    302.28073   -1169.6246    295.96468    492.31891    63.485683    38369.369 
   18000    305.41485   -1185.7396    308.04064    502.44269   -149.77731    38369.369 
   18100    305.52174   -1183.4153    308.28849    505.49783    438.44884    38369.369 
   18200    300.85787     -1182.48    296.91299    473.98198    491.02721    38369.369 
   18300    300.41879   -1163.3264    338.11386    532.35228    436.42365    38369.369 
   18400    303.45978   -1176.0259    302.28304    497.56402    933.50928    38369.369 
   18500    297.69443   -1132.1865    322.83748    535.90474    491.94759    38369.369 
   18600    300.70087   -1171.2449    318.06642     505.6611    319.08258    38369.369 
   18700    306.50096   -1171.3813    320.14972     533.8181    384.63225    38369.369 
   18800    293.55137   -1157.8229    330.86935    499.57814     529.0648    38369.369 
   18900    298.86787   -1190.2987    314.66945    474.92714    717.83058    38369.369 
   19000     303.6205   -1196.3392    326.82317    502.51709    406.01261    38369.369 
   19100    301.33985   -1211.0732    318.88897    469.54279    515.75169    38369.369 
   19200     306.4218   -1222.8971    309.65903     471.4538    322.10632    38369.369 
   19300    297.76811   -1237.9733    324.88975    432.50315    90.736877    38369.369 
   19400    295.53192   -1190.2471     324.2062    469.44069     520.7889    38369.369 
   19500    306.53298   -1187.6349    321.05105    518.61045  -0.10700757    38369.369 
   19600    305.70007   -1207.0853    316.85979    491.20504    95.952841    38369.369 
   19700    299.67522    -1177.436     325.0156    501.78434    443.73837    38369.369 
   19800    294.85783   -1175.5306    320.82669    477.73148   -126.13522    38369.369 
   19900    295.99615   -1172.9437    308.28251    472.91823    71.640911    38369.369 
   20000    291.66065   -1185.4911    311.53633    444.03295   -53.627042    38369.369 
   20100    297.85098   -1150.3654    327.62167    523.21743   -38.882813    38369.369 
   20200    293.35662    -1180.811    324.22888    469.06944    33.037621    38369.369 
   20300    305.06454   -1143.0346    337.18178    572.70581    264.39923    38369.369 
   20400    308.66677   -1175.4663    312.25172    531.62213     881.7758    38369.369 
   20500    295.99488   -1197.0835    318.67345    459.16364    692.97709    38369.369 
   20600    294.03446    -1183.833    340.50816    485.38986    849.75309    38369.369 
   20700    291.96271   -1181.2462    330.45653    468.56292    565.00182    38369.369 
   20800    290.51989   -1190.5744    329.11556    451.37383     229.0857    38369.369 
   20900    301.22608   -1198.2354    312.93814    475.91569   -20.736036    38369.369 
   21000    305.21094   -1243.6504    322.46941     458.0392    -113.3493    38369.369 
   21100    308.50167   -1224.5694    322.33536    491.85668   -153.35088    38369.369 
   21200     303.1149   -1216.5727    317.01143    470.18711    459.66308    38369.369 
   21300     307.9897    -1202.412     315.7155     505.0806    263.08927    38369.369 
   21400    299.87685   -1177.4801    311.60147    489.23731    107.21423    38369.369 
   21500    299.89286   -1217.1063    300.67179    438.75369    357.10808    38369.369 
   21600    311.51569   -1170.9311    329.23572    566.01532    13.058007    38369.369 
   21700    296.73732   -1176.4791    323.90953     488.3591    279.88677    38369.369 
   21800    300.33808   -1143.9984    326.30985    539.51159     179.2935    38369.369 
   21900    305.90705   -1119.9557    323.69517    586.10534    441.29874    38369.369 
   22000    302.48968   -1159.0561    311.07201    518.93889     494.6693    38369.369 
   22100    301.86187   -1142.5659    347.31116    568.83132      402.382    38369.369 
   22200    295.34461   -1180.3488    335.46283    489.74914    678.46881    38369.369 
   22300    292.59067   -1174.1184    329.74317    477.81511    825.16197    38369.369 
   22400    296.39989    -1214.047    322.41471    447.77155    523.90796    38369.369 
   22500    306.34587   -1207.7672    314.57943    491.16108    412.85939    38369.369 
   22600    309.60882   -1200.6136    302.83782    501.31795    395.99373    38369.369 
   22700    292.52449   -1223.8287    339.82926    437.89181    226.81634    38369.369 
   22800    289.83616   -1207.1031    323.94624    426.58603   -15.052792    38369.369 
   22900    291.26313   -1177.1628    334.53974     473.5682    181.41707    38369.369 
   23000    298.79817   -1137.5935    345.08531     557.7333    260.51565    38369.369 
   23100     302.4887   -1152.0065    309.91148    524.82358    146.45101    38369.369 
   23200    307.37197   -1200.3695    329.89242    518.50853    847.93001    38369.369 
   23300    307.43779   -1198.8744    340.90406    531.31279    676.50926    38369.369 
   23400    306.65509   -1203.9319    320.07906    501.89331    244.21348    38369.369 
   23500    299.08862   -1189.5213    327.17837    489.21098   -159.17287    38369.369 
   23600    304.72313   -1182.9543    333.06409    527.12557   -18.695773    38369.369 
   23700    295.98535     -1198.75    328.37412    467.15468    273.96638    38369.369 
   23800    307.11286   -1243.8497    329.23127    473.19633    32.651662    38369.369 
   23900    300.52632   -1229.8483    329.00564    457.20812   -275.69502    38369.369 
   24000     289.9737   -1265.2589    314.40452    359.51009   -257.83356    38369.369 
   24100    302.84465   -1257.8589    338.05779    448.72597   -135.23901    38369.369 
   24200    299.66304   -1214.2415    335.85672    475.76495   -184.04549    38369.369 
   24300    297.73889   -1219.4932    330.18516    456.14661    -224.3578    38369.369 
   24400     311.9853   -1222.6468     324.4351     511.6212    145.86063    38369.369 
   24500    297.92661   -1222.0218    347.99087    472.27208    24.211401    38369.369 
   24600    295.74646   -1224.6179    325.00959    436.84268    94.515371    38369.369 
   24700    294.82447   -1173.7525    339.95168    498.48383   0.24343687    38369.369 
   24800    308.67869   -1219.5254    357.09058    532.45573    321.39569    38369.369 
   24900    298.91599    -1194.152    333.74497    490.36686    440.31603    38369.369 
   25000    296.32116   -1209.3515    351.17829    480.87489    538.14202    38369.369 
   25100     294.0874   -1180.0042    351.77568    500.72536    141.59316    38369.369 
   25200    301.06275    -1243.779    341.31899    458.01483   -321.67346    38369.369 
   25300    298.30065   -1198.0553    338.60402    488.54192    314.81713    38369.369 
   25400    298.50229   -1192.1994    348.76375    505.46877    -116.5712    38369.369 
   25500    312.17738   -1180.2196    338.75644    569.23774    98.711473    38369.369 
   25600     299.8093   -1150.2225    362.43615    567.02426   -272.54117    38369.369 
   25700    294.39635   -1182.4246    351.04897    498.97445     59.27982    38369.369 
   25800    308.29984   -1188.0787    338.26457    543.36454   -118.81228    38369.369 
   25900    294.45308   -1221.9052    347.73827    456.43942    172.29713    38369.369 
   26000    303.39609   -1231.4176    351.95935    491.56075   -79.632914    38369.369 
   26100    301.92806   -1205.5762    331.22395    490.03284    132.27935    38369.369 
   26200    303.74088   -1251.2266     359.2642    480.61469    978.00056    38369.369 
   26300    310.08802      -1258.4    350.99142    493.85062    1375.0202    38369.369 
   26400    298.16958   -1219.1137    343.52399    471.81122    1212.9613    38369.369 
   26500    294.37209   -1221.3643    362.25747    471.13362    945.61675    38369.369 
   26600    292.06697   -1203.1097    323.26824    439.98233    641.97635    38369.369 
   26700     297.6116   -1222.5359    340.38464    462.72824    183.05278    38369.369 
   26800    304.64391    -1192.994    349.58865    533.25247   -10.207653    38369.369 
   26900    288.72056   -1252.2205    348.34858    400.82979    50.194526    38369.369 
   27000     295.3536   -1254.5309    335.78361    415.92849    463.58241    38369.369 
   27100    301.61589   -1246.6883    337.39778    453.68399    881.51525    38369.369 
   27200    301.94842   -1237.0896    349.38293    476.77051    512.65325    38369.369 
   27300    295.24311   -1252.0683     358.0701    440.17827    632.49204    38369.369 
   27400    301.76243   -1219.2252    343.61336    488.02482    552.80857    38369.369 
   27500    300.42183   -1195.5898    358.08709    520.07592    404.59604    38369.369 
   27600    303.97782   -1216.7628    349.95157    506.83659    988.28566    38369.369 
   27700     303.9459   -1193.7951    341.61912    521.32765    241.07718    38369.369 
   27800     300.1304    -1185.518    361.48594    532.22959    293.46969    38369.369 
   27900    298.15119   -1195.3697    349.99709    501.94523   -36.038713    38369.369 
   28000    303.54646   -1183.4242    353.04987    541.32426   -273.07591    38369.369 
   28100    291.96991    -1190.084    359.05034    488.35147   -223.12727    38369.369 
   28200    321.30305   -1217.4302     357.2779     591.7866    81.516745    38369.369 
   28300    308.66389   -1211.1299    342.16535    525.85916   -369.89675    38369.369 
   28400    304.04617   -1208.7311    345.17929    510.40492    349.28292    38369.369 
   28500    304.80212   -1191.1966    358.76687    544.94298    664.27412    38369.369 
   28600      302.062   -1217.4073    349.83512    497.41824    411.66524    38369.369 
   28700    305.40994   -1278.2258    345.74793    447.64156    -25.32067    38369.369 
   28800     298.4303   -1206.7749    369.50352    511.30765    733.55111    38369.369 
   28900    306.54302   -1236.1009    345.62612    494.76497    521.04324    38369.369 
   29000    296.03577   -1224.0004    349.12845    462.88643    452.61301    38369.369 
   29100    304.97051   -1203.8096    360.77471    535.09878     528.2114    38369.369 
   29200    303.49854   -1236.6578     364.6486    499.47281    677.91538    38369.369 
   29300    302.68126    -1262.944    356.10876    460.95351    534.03143    38369.369 
   29400    295.64649   -1287.1843    351.72003    400.53501    21.847129    38369.369 
   29500    299.60826   -1225.4135    352.31598    480.80468    463.84214    38369.369 
   29600    302.23268    -1242.285    334.32151    457.79822    131.04502    38369.369 
   29700    295.67343   -1218.3869    362.95873     480.6929    487.37574    38369.369 
   29800    296.32611   -1237.9456     373.4838    474.60859    329.52628    38369.369 
   29900    295.87026   -1221.7418    350.04209    465.31079    227.75225    38369.369 
   30000    300.18537   -1269.1062    352.33589     439.7398    645.12772    38369.369 
   30100    296.74101   -1268.3919    364.08782    436.64131     245.6738    38369.369 
   30200    296.91012   -1226.1121    355.25885    470.85625    585.93365    38369.369 
   30300     273.8596   -1252.0483    350.44164    335.93964   -252.10725    38369.369 
   30400    302.60941   -1254.3111    345.38133    458.53432    433.79536    38369.369 
   30500    303.37184   -1272.5362    356.56924    454.94255    196.38431    38369.369 
   30600    308.15022   -1250.0769    340.59839    483.02404    260.44635    38369.369 
   30700    301.05004   -1218.1256     364.9478     507.2397     155.0745    38369.369 
   30800    303.40421   -1242.9279    354.55107    482.67894     360.7006    38369.369 
   30900    292.28256   -1270.3732    345.96884    396.39363    299.93512    38369.369 
   31000    297.63207   -1229.3242    344.20995    459.85771    999.60499    38369.369 
   31100    301.08525   -1258.8971    339.72247    441.40196    856.16891    38369.369 
   31200    295.63024   -1254.8607     339.7604     420.8256     826.9237    38369.369 
   31300    294.91814    -1266.917    360.14966    425.94063    23.141657    38369.369 
   31400    304.63081   -1249.1493    344.58898     472.0383     51.65473    38369.369 
   31500    299.75151   -1247.5114    344.71881    451.75688   -464.26576    38369.369 
   31600    308.66199   -1265.5719    337.25544    466.49867   -289.73213    38369.369 
   31700    297.08537   -1252.6536     355.2976     445.1454   -194.41011    38369.369 
   31800    296.51457   -1252.9536    349.00561    435.97404   -515.66219    38369.369 
   31900    297.54422   -1214.6957    351.77337     481.6526   -165.83843    38369.369 
   32000    300.11827   -1270.9372    349.39807    434.66768    122.15977    38369.369 
   32100    309.57377   -1219.5489    347.91535    527.30187    306.41662    38369.369 
   32200    305.78824   -1198.7381    360.92743    544.01828    597.96351    38369.369 
   32300    291.05157   -1188.0986     360.7693    487.90592    181.83182    38369.369 
   32400    299.72137   -1241.2714    346.26048    459.40232    104.71553    38369.369 
   32500    306.86084   -1276.2519    341.93986    452.36386   -97.931015    38369.369 
   32600    295.91524   -1211.5853    354.85543    480.48388   -279.68962    38369.369 
   32700    291.23261   -1194.9428    355.12201    476.23263   -596.53405    38369.369 
   32800    294.76526   -1233.6178    358.40687    456.80613   -420.52583    38369.369 
   32900    301.24482   -1236.1928    334.24116    459.34604   -42.754369    38369.369 
   33000    288.21137   -1243.2162    367.65631    426.84081   -112.49602    38369.369 
   33100    306.63021   -1212.1549    354.23971    527.71854   -246.37343    38369.369 
   33200    302.85589   -1222.5012     352.1199    498.19662    94.004437    38369.369 
   33300    297.59612   -1215.1858    342.19688    471.82059    504.71431    38369.369 
   33400    297.99329    -1273.528    346.98758    420.06387    190.74701    38369.369 
   33500    288.31587   -1192.5833     372.2888    482.57841     112.3283    38369.369 
   33600    297.10278   -1233.0915    347.44567    456.93426    263.79176    38369.369 
   33700     296.2973   -1203.9277    345.68667    480.69921    67.512847    38369.369 
   33800    295.72797   -1267.6038    343.85605    412.61974    153.91241    38369.369 
   33900    301.10297   -1179.5086    357.50015    538.64814    433.52564    38369.369 
   34000       300.52   -1244.2266    371.64027    485.43588    377.35643    38369.369 
   34100    298.65654   -1243.9515    371.39966    477.04959   -222.74453    38369.369 
   34200    292.28503   -1269.2585    338.56937    390.12004    304.67276    38369.369 
   34300    295.84995   -1237.6553    372.08878    471.35217   -61.798712    38369.369 
   34400    288.75946   -1238.1093    359.91171    426.67981     57.35435    38369.369 
   34500    294.62297   -1221.5308    361.65615    471.49943   -131.70711    38369.369 
   34600    304.32109   -1227.7239     354.6376    502.11273    215.35364    38369.369 
   34700    300.90234   -1256.1106    352.19922    455.83859    420.68874    38369.369 
   34800    303.00235   -1256.5936    355.10544    467.75165    697.79492    38369.369 
   34900    303.61242   -1251.5622    346.32098    466.75535    740.85977    38369.369 
   35000    293.50448   -1275.5334    375.66761    426.45396    865.08674    38369.369 
   35100    312.87997   -1238.0057    348.56583    524.43591    1234.7291    38369.369 
   35200    304.53973   -1249.0347    370.97252    498.12486    762.57509    38369.369 
   35300     301.6944   -1219.0132     374.2457    518.56175    536.30503    38369.369 
   35400    301.35891   -1232.6748    366.24563    495.38396    67.632155    38369.369 
   35500    309.08486    -1235.378    393.53322    554.88124    283.97358    38369.369 
   35600    309.38463   -1205.1748    335.41214    528.31804   -37.239179    38369.369 
   35700    310.93044   -1223.8161    372.62857     553.8785    44.403144    38369.369 
   35800    305.44666   -1266.2208    354.76455    468.82907    666.53033    38369.369 
   35900    305.52339   -1271.6875     365.3961    474.34073    328.26692    38369.369 
   36000    311.91401   -1231.0983    373.44505    551.85749    449.31175    38369.369 
   36100    302.49614   -1233.9016    340.83861    473.88931   -258.42997    38369.369 
   36200    291.99677   -1214.9419    371.10345    475.66812     -128.242    38369.369 
   36300     304.1137   -1221.3827    373.28075    526.15988   -79.877886    38369.369 
   36400    309.06477   -1226.3166     377.9096    548.22831    250.12404    38369.369 
   36500    292.96423   -1211.6617    363.44706     475.6638    9.9338077    38369.369 
   36600    296.26326   -1240.6654    386.18057    484.30161    676.29898    38369.369 
   36700     307.6898   -1257.1655    347.75452    481.01096    479.80872    38369.369 
   36800    296.94083   -1259.6881    369.23046     451.3907    296.66783    38369.369 
   36900    303.41586   -1248.4265    384.59096    507.27285    605.04265    38369.369 
   37000    296.29503   -1257.0655    368.08472    449.94922    207.28351    38369.369 
   37100    296.20935    -1231.355     375.8962    483.08399   -12.367128    38369.369 
   37200    305.19337    -1203.794    354.65009     529.9968    224.32477    38369.369 
   37300    299.34805   -1234.3058    341.97254      460.393   -437.67721    38369.369 
   37400    306.26897   -1263.3304    380.76297    501.43389   -208.14229    38369.369 
   37500    291.50229   -1269.5095    384.80058    432.56312    14.843333    38369.369 
   37600    297.71669   -1252.7392    370.01671    462.63186   -242.34263    38369.369 
   37700    294.81395   -1221.4737     385.7949    496.55836   -335.68485    38369.369 
   37800    296.03116   -1270.0779      366.396    434.05569   -61.874191    38369.369 
   37900    305.61967   -1261.2374    361.90048    481.73029   -386.59373    38369.369 
   38000    302.35122   -1250.1852    377.21197    493.32411   -145.54892    38369.369 
   38100    302.23174   -1234.7176     379.9574    510.99724   -399.74465    38369.369 
   38200    299.74627   -1239.3381    374.32471     489.5124   -154.95399    38369.369 
   38300    306.82763   -1229.4369    389.19721     546.2862    40.622288    38369.369 
   38400    303.80598    -1251.808    358.11198    479.17531    -54.66707    38369.369 
   38500    300.36295   -1262.8463    404.62894    499.09518    169.02879    38369.369 
   38600    297.46516   -1250.6343    372.96161    466.54504    217.68448    38369.369 
   38700    307.81141   -1242.8398    386.75231    534.88397    224.20374    38369.369 
   38800    301.50182   -1207.3676    394.49313    549.58455    671.94763    38369.369 
   38900    288.70726   -1219.7135    383.16226    468.09025    188.79775    38369.369 
   39000    299.08768   -1231.4526    385.17353    505.27065    359.68974    38369.369 
   39100    298.35668   -1233.4196    391.26039    506.08717    162.97646    38369.369 
   39200    295.48345   -1229.9447     377.1939    482.51178    789.86769    38369.369 
   39300    295.59169   -1249.2688    393.57117    480.05408    341.56652    38369.369 
   39400    287.17479   -1303.9254    366.37939    360.17047      242.463    38369.369 
   39500    302.83757   -1274.2757    368.67459    462.89404    538.24964    38369.369 
   39600    295.35592    -1204.189    361.58381     492.0811   -377.70865    38369.369 
   39700    308.02839   -1263.9024    365.05958    493.10921   -270.63052    38369.369 
   39800    300.76391   -1273.6669    358.05631    443.51391    96.109954    38369.369 
   39900     301.1582   -1225.9152    363.75859    498.74957    395.48851    38369.369 
   40000    294.23823   -1253.3495    383.52136    459.80736     310.2045    38369.369 
   40100     301.7916   -1253.9804    373.83216    483.62025    98.683705    38369.369 
   40200    301.42347   -1288.1828    375.14245     449.0646    106.42446    38369.369 
   40300    306.93965   -1307.9279    379.30708     458.4112    42.678265    38369.369 
   40400    302.25827   -1242.7896    385.96728    509.05497    235.22891    38369.369 
   40500    297.60184   -1249.4042    387.00041     482.4316    547.63709    38369.369 
   40600    294.20923   -1262.9559    374.14796    440.69647    494.98893    38369.369 
   40700    302.25417   -1241.9501    362.37489    486.28359    698.77512    38369.369 
   40800     300.1107   -1246.7245    375.11713    484.56529    174.29612    38369.369 
   40900    296.90768   -1272.9205    370.09724     438.8752    349.17131    38369.369 
   41000    301.74446   -1285.6973    350.94139    428.79957    292.50654    38369.369 
   41100    305.16503   -1276.2039    360.58758    463.39638    339.63468    38369.369 
   41200     290.5223   -1301.0721    358.32724    370.09867   -276.56024    38369.369 
   41300    296.66192    -1282.384    372.47316    430.67705   -167.97684    38369.369 
   41400    302.63159   -1245.5533    381.88663    503.89766   -312.43662    38369.369 
   41500    314.84426   -1252.4381    384.18176    554.49594   -314.71843    38369.369 
   41600    293.27556   -1244.0601    388.52928    469.75443   -361.46491    38369.369 
   41700    292.31004   -1241.9888    379.26999    458.20337   -152.52413    38369.369 
   41800    303.07791   -1240.6091    391.32363    520.29575    494.71203    38369.369 
   41900    296.24383   -1278.8582    375.38202    435.22243    322.88319    38369.369 
   42000    306.93788   -1297.3869     345.5302    435.16734    368.73415    38369.369 
   42100    287.40726    -1267.385    386.71872    418.10066    349.58527    38369.369 
   42200    295.72132   -1251.2082    365.05783    450.18703     154.2385    38369.369 
   42300    308.14688    -1246.631    372.35166    518.20811    751.06145    38369.369 
   42400    301.02079   -1263.7299    379.03401     475.5894    269.16636    38369.369 
   42500    291.89633    -1323.604    374.74781    370.19652    68.475571    38369.369 
   42600    292.61672   -1288.7683     381.0532    414.59296    548.74682    38369.369 
   42700     290.2841   -1306.6551    381.08051    386.19257    36.584042    38369.369 
   42800    294.07828   -1281.8526    394.27442    441.33455   -28.020437    38369.369 
   42900    300.06825   -1245.3524    379.32952    489.95794    91.102239    38369.369 
   43000    302.60542   -1267.6745    359.12158    458.89313    329.39937    38369.369 
   43100    303.45782   -1316.5937    397.95396    452.65829    609.63905    38369.369 
   43200     302.0975   -1301.5542    404.04783    467.64445    330.83347    38369.369 
   43300    313.16619   -1302.7917    369.10884    481.48637    344.11426    38369.369 
   43400    290.09963   -1295.5035    364.49663    379.92669    539.82705    38369.369 
   43500     304.5968   -1299.3013    397.29195    474.43561    257.51413    38369.369 
   43600    291.22844   -1310.0652    398.13461    404.10394    422.38554    38369.369 
   43700    293.07426   -1291.6739    390.61597    423.31768    357.75816    38369.369 
   43800    298.63066   -1346.5159    388.52536    391.49394    640.99785    38369.369 
   43900    295.42536   -1348.5906     381.5076    367.91704    426.89288    38369.369 
   44000    304.97956   -1335.4503    381.10333    423.82766    390.52058    38369.369 
   44100    304.52405   -1334.7383    388.85614    430.23407   -278.82805    38369.369 
   44200    303.23489    -1293.917      390.739    467.11255    455.83359    38369.369 
   44300    299.60774   -1278.7242    383.07526     458.2509    329.38366    38369.369 
   44400    291.68643   -1337.1721    390.04832    370.98041    525.97387    38369.369 
   44500    291.41937   -1317.9741     390.4986    389.42183     752.8983    38369.369 
   44600    300.62979    -1281.746    392.79949    469.57184     775.5795    38369.369 
   44700    293.24571   -1284.3151     393.8273    434.66262    775.66949    38369.369 
   44800    307.72445   -1273.5165    378.98509     496.0471     645.7963    38369.369 
   44900    290.44821   -1264.6983    394.53661    442.34701    468.55403    38369.369 
   45000    312.59409   -1245.9576    376.52902    543.15532    473.98732    38369.369 
   45100    298.02246   -1264.2505    377.88922    460.37485    133.86914    38369.369 
   45200     289.9604   -1255.9093    361.25654    415.65165   -286.65433    38369.369 
   45300    292.81898   -1263.6554    383.71078    443.27741    353.23509    38369.369 
   45400    300.04688   -1312.4745    370.89875    414.30847  0.014971462    38369.369 
   45500    298.53797   -1300.4065    371.04101    419.70019    240.97023    38369.369 
   45600    297.53508   -1272.1713    402.75261    475.11499   -23.983401    38369.369 
   45700    298.92369    -1288.787    388.87213    450.89375    85.246157    38369.369 
   45800    301.12629   -1284.3935    412.77431    489.14281    30.104795    38369.369 
   45900    302.93582   -1326.4034    381.61525    424.15094     87.31002    38369.369 
   46000     290.0214   -1303.9382    377.04728    383.68914   -136.29671    38369.369 
   46100    292.11322   -1367.9139    380.73218    332.85105    347.40474    38369.369 
   46200    292.64699   -1299.7842    394.21466    416.87534    95.253537    38369.369 
   46300    293.69271   -1307.1809    397.55735     417.5468    116.89958    38369.369 
   46400    305.43193   -1311.7498    401.19902    469.66798    151.03675    38369.369 
   46500    304.36858   -1287.8349    419.41177    506.99049    103.21128    38369.369 
   46600    299.94292   -1275.3701    410.30648     490.3509    294.97998    38369.369 
   46700    298.01494   -1274.3858    415.11303    487.42937   -51.191778    38369.369 
   46800    295.89293   -1287.8561    398.40479    447.66163    237.98236    38369.369 
   46900    294.82397   -1300.4538    382.77494    414.60359   -86.015929    38369.369 
   47000    291.03612   -1307.2656    402.76016    410.66001    223.68569    38369.369 
   47100    300.51247   -1298.0338     407.1864    467.14084    60.172328    38369.369 
   47200    300.36743    -1288.759    441.65105    510.22486    -66.27368    38369.369 
   47300    300.57255   -1273.0833    400.51689    485.69331    176.12288    38369.369 
   47400    306.67324   -1248.6267    398.40457    535.60599   -103.38673    38369.369 
   47500    288.03184    -1300.158    406.56679     407.9982   -7.6733328    38369.369 
   47600    304.19104   -1280.6543    390.72318    484.68015   -35.841791    38369.369 
   47700    304.15795   -1275.7337    417.77514     516.5032    138.06949    38369.369 
   47800    298.54799   -1307.0175    420.51065    462.60408    604.53171    38369.369 
   47900    302.08881   -1254.6569     426.0734    536.52806    840.41497    38369.369 
   48000    307.40974   -1286.2408    413.78862    516.70417    225.52323    38369.369 
   48100    307.34746   -1293.3532    410.47167    505.99335   -79.292464    38369.369 
   48200    301.74173   -1244.5605    416.43428    535.41689    274.63252    38369.369 
   48300    288.55685   -1265.1356    399.11744    437.94377   -1.7630345    38369.369 
   48400    309.22646   -1254.6683    415.56544    558.26303    383.24995    38369.369 
   48500    293.98358   -1274.3526    392.18253     446.3147   -140.02059    38369.369 
   48600    293.29151   -1289.6294    405.49364    441.22157   -452.80736    38369.369 
   48700    312.50702    -1284.259    411.09376    539.02527   -188.91784    38369.369 
   48800    305.60739   -1267.5593    398.01273    511.46513   -193.47174    38369.369 
   48900    308.41229   -1254.7977    407.33607    546.22516     79.97536    38369.369 
   49000    296.84672   -1271.0706    382.73859    453.09105   -287.30326    38369.369 
   49100    303.54222   -1234.7819    420.83651    557.73399   -330.61741    38369.369 
   49200    305.32038   -1214.1171    423.66514     589.2628   -295.22873    38369.369 
   49300    302.48716   -1259.0234    395.37615    503.26447     -141.783    38369.369 
   49400    309.03919   -1291.7733    406.89006    511.63642   -80.210365    38369.369 
   49500    298.51739   -1277.2966    416.22411    487.90012    296.74065    38369.369 
   49600    288.44412   -1268.2812    403.80941    438.98064    94.851023    38369.369 
   49700    302.39027   -1231.7224    404.93265    539.68411    335.89671    38369.369 
   49800    301.33033    -1220.443    404.20739    545.44848    57.091761    38369.369 
   49900    300.58927   -1263.4495    410.87901    505.76474    47.124665    38369.369 
   50000     296.2429   -1231.4106    395.29582    502.57965    101.85219    38369.369 
   50100    307.80175   -1294.0647    392.50649    489.36957    195.72386    38369.369 
   50200    299.71494   -1302.0703    420.99841    473.31231    248.48065    38369.369 
   50300    301.32021   -1296.8208    404.28513    469.10267    142.68401    38369.369 
   50400    290.54304   -1303.3541    368.37748    377.96065    138.64937    38369.369 
   50500    293.53992   -1326.8384    399.35065    398.99213    186.59537    38369.369 
   50600    304.03102   -1312.1739    398.20418    459.91848    99.019073    38369.369 
   50700    304.14777   -1319.8153     411.3601     465.9606    309.02208    38369.369 
   50800    295.41726   -1306.7014      416.458    444.72004    18.118833    38369.369 
   50900    303.26782   -1294.5881    398.71973    474.57099    353.44595    38369.369 
   51000     303.3933   -1310.9297    411.90141    471.97817    410.42441    38369.369 
   51100    298.86683   -1318.1291    396.91998    429.34257    249.41583    38369.369 
   51200    290.07537   -1252.7011    401.05518    459.17799    602.03055    38369.369 
   51300    297.43026   -1322.5599    422.23005    443.73016    566.19759    38369.369 
   51400    308.03419   -1295.3239    401.34081    497.99507      646.703    38369.369 
   51500    302.50304   -1288.0932     414.6794    493.56961   -49.578471    38369.369 
   51600    308.96771   -1267.7284    412.69475    541.16299    447.87687    38369.369 
   51700    312.86789   -1306.0399    413.67887    521.46024     214.0975    38369.369 
   51800    308.03589   -1299.1712    414.12541    506.94013    447.51761    38369.369 
   51900    291.97816    -1291.443    387.19677    415.17617    102.44771    38369.369 
   52000    307.26878   -1311.4781    396.81662    473.85792    686.63468    38369.369 
   52100    297.41475   -1316.0599    392.38576    420.31577    89.458912    38369.369 
   52200    312.89723   -1253.0601    404.62184    565.51554     174.7727    38369.369 
   52300    304.69995    -1275.683    410.89599    512.12398   -426.49592    38369.369 
   52400    295.63509   -1294.9196    427.76066    468.78881    73.093832    38369.369 
   52500    294.01666   -1268.9967    412.82039    472.45797    413.41091    38369.369 
   52600    294.01434   -1308.2757    406.07544    426.42353    402.25734    38369.369 
   52700    294.44211    -1330.823     397.0652    396.79907    95.808402    38369.369 
   52800    298.44405   -1339.8287    414.63481     423.4473    615.11541    38369.369 
   52900    298.74228   -1335.1868    445.50615    460.30822    766.97781    38369.369 
   53000    300.09269   -1353.0817    399.01747     402.0271     281.3755    38369.369 
   53100     293.9612   -1348.1154    433.75538    414.02361    301.08428    38369.369 
   53200    297.01968   -1344.0452    418.70212    416.86153    251.40409    38369.369 
   53300      299.953   -1300.0746    414.29262    469.67809    381.59756    38369.369 
   53400    302.88169   -1292.8426    430.96707    506.81893    226.05783    38369.369 
   53500    305.36389   -1300.6147    400.96489    480.26154    367.23322    38369.369 
   53600    295.52625   -1352.8795    428.76255    411.33897    236.75481    38369.369 
   53700    299.63844   -1374.1815    410.14999    390.00705    353.34019    38369.369 
   53800    297.42952   -1336.7109     421.6876    429.03331    602.26496    38369.369 
   53900    296.23708   -1315.0876    427.82343    451.40395    881.81448    38369.369 
   54000     300.4368   -1305.8218      406.893    458.71741    1037.9493    38369.369 
   54100    291.65077   -1262.4003    426.87121    482.41388    420.37536    38369.369 
   54200     304.1384   -1274.3964    427.23985    527.21695    340.31003    38369.369 
   54300     307.6306   -1311.0989    434.67985    513.73535    349.97829    38369.369 
   54400    303.07341   -1277.4854    436.01369    528.08911   -203.06137    38369.369 
   54500    297.54123   -1299.5347    431.60144    476.62813    188.10087    38369.369 
   54600    296.81681   -1302.1691    425.39795    464.51673   -109.83436    38369.369 
   54700    293.81441   -1314.9769    441.01028    453.75367   -119.41622    38369.369 
   54800     306.0954   -1302.4121    405.56469    486.36952   -372.47711    38369.369 
   54900    303.83143    -1306.577    427.65549    494.06476   -279.71588    38369.369 
   55000    294.48388   -1323.2347    397.34017    404.85102   -424.66765    38369.369 
   55100    302.14974   -1335.9764    415.56398    444.97446   -354.46228    38369.369 
   55200    300.31934   -1301.1519    426.45802     482.4216    128.52883    38369.369 
   55300     300.0452   -1314.9782    419.02959    459.92803   -139.15387    38369.369 
   55400    291.84876   -1318.8761    419.32974    419.29131     420.6369    38369.369 
   55500    308.95183   -1319.1507    411.20117    488.17539    499.68097    38369.369 
   55600    289.99759   -1355.5762    411.19136    366.08757    287.57544    38369.369 
   55700    298.36869   -1330.6887    412.30735    429.91928    186.33495    38369.369 
   55800    301.29803   -1321.9332    416.54683     456.1517    288.33958    38369.369 
   55900    297.57741   -1303.5518    399.51325    440.68642    443.63231    38369.369 
   56000    306.29303   -1285.5022    436.26225    534.87008    510.97758    38369.369 
   56100    308.08438   -1295.9236    419.41515    515.69658    118.55909    38369.369 
   56200    308.06814   -1294.4402    425.06508    522.75643   -145.86747    38369.369 
   56300    299.94884   -1287.3807    441.66065    509.72118   -689.75868    38369.369 
   56400    293.06142   -1274.4202    433.35643    483.25386   -686.61471    38369.369 
   56500    304.94283    -1310.721    407.32327    474.61082   -202.29501    38369.369 
   56600    297.75847    -1307.886    412.57466    450.23176    -205.1838    38369.369 
   56700    288.98789   -1297.6458    415.81506      424.079    -615.3585    38369.369 
   56800    291.15278   -1297.7735    408.07502     425.9942   -300.79624    38369.369 
   56900    307.44492   -1335.4974    431.07335    484.89129    660.45592    38369.369 
   57000    289.86601    -1316.895    461.12142    454.10429    1197.6504    38369.369 
   57100    295.98163   -1277.2149    458.51936    518.81818    647.90444    38369.369 
   57200    300.75727    -1310.394    443.65443    492.35485    149.07924    38369.369 
   57300      302.514   -1291.8802    429.95987    505.11261    201.14823    38369.369 
   57400    294.64478   -1276.4442    404.16931    459.19773   -15.425389    38369.369 
   57500    297.36301   -1306.6567    426.10987    463.20925   -324.94855    38369.369 
   57600    301.99888   -1329.7994    429.17823    464.08399   -212.18249    38369.369 
   57700    303.86795    -1354.076    418.92577    438.00106    676.15139    38369.369 
   57800    305.92401   -1383.8731    421.52565    420.09503    364.95225    38369.369 
   57900     303.3845    -1375.408     405.2823    400.84096    358.65454    38369.369 
   58000    297.14571   -1365.3037    437.19612     414.6666    353.45421    38369.369 
   58100    300.94837   -1319.7041    417.99134    458.24523    643.46031    38369.369 
   58200    299.39781   -1328.9842    427.61452    451.58143    82.180302    38369.369 
   58300    296.10769   -1309.9387    417.54023    445.68495   -187.39022    38369.369 
   58400    293.88286   -1349.7938    416.19394    394.42977    128.12692    38369.369 
   58500    303.05834    -1309.244    422.80395    483.05278    282.17331    38369.369 
   58600    292.70091   -1333.9609    411.63426    400.36186   -57.532304    38369.369 
   58700    307.07296   -1278.4848    435.34223    544.49189    258.45973    38369.369 
   58800    294.01016   -1321.3537    445.71863    452.96979   -181.24012    38369.369 
   58900    307.48531   -1292.5464     437.4282    534.37963    52.929824    38369.369 
   59000    287.69976    -1322.091    411.77574    389.77351   -417.72985    38369.369 
   59100     292.0525   -1326.5805    441.05566    434.23354   -817.51807    38369.369 
   59200     300.1277   -1305.8234    443.10819    493.53423   -301.93547    38369.369 
   59300    298.58451   -1291.8775    452.06183    509.46029   -259.73457    38369.369 
   59400    301.24083   -1323.9366    443.59809    480.94116   -129.08352    38369.369 
   59500    293.82763   -1300.6195    447.81328    474.97384   -28.528647    38369.369 
   59600    291.91734   -1316.4124    425.83586    428.57103   -72.395401    38369.369 
   59700    299.47515    -1328.814    419.17994    443.66655    57.156589    38369.369 
   59800    284.05681     -1328.61    416.65203    371.66862   -22.861934    38369.369 
   59900    296.58465   -1289.3962    440.12784    490.97037    211.66623    38369.369 
   60000    299.46912   -1357.6351    423.09968    418.73801    414.15218    38369.369 
   60100    300.87839   -1349.8512    425.66142    435.45205    137.88507    38369.369 
   60200    291.86788   -1329.3869    425.51996    415.05713    76.771419    38369.369 
   60300    305.05152   -1345.2728    428.89167     462.1186   -226.88192    38369.369 
   60400    311.15591   -1349.7625    407.52955    463.85195    371.75523    38369.369 
   60500    294.56706   -1366.0269    429.29338    394.38796    443.28821    38369.369 
   60600    295.14204   -1364.5396    437.86839    407.04852    522.79252    38369.369 
   60700     306.3437   -1343.7389     430.3804    470.98045    237.77104    38369.369 
   60800    302.82517    -1317.501    443.67732     494.6154   -590.24497    38369.369 
   60900    297.70904   -1344.9029    434.70075     435.1176   -113.56227    38369.369 
   61000    301.19867   -1312.1566    427.83141    476.76386   -226.40614    38369.369 
   61100    290.06147   -1339.8415    446.88732    417.80691   -40.634658    38369.369 
   61200    299.02285   -1346.7227    436.46304    440.99709   -266.02278    38369.369 
   61300    300.73171   -1351.2507    439.35264    447.08092   -208.25174    38369.369 
   61400    295.01343   -1355.6523    451.46471    428.95101   -30.131698    38369.369 
   61500    299.88938   -1406.4886    426.86306    375.54702   -315.33313    38369.369 
   61600    306.32477   -1376.8628    416.15716    423.54784   -540.34774    38369.369 
   61700    302.24287   -1339.6505    416.02384    442.18105   -480.66147    38369.369 
   61800    300.97729   -1339.8561    405.06812    425.30069   -519.60439    38369.369 
   61900    310.03979   -1365.8164    401.63558    436.86049   -750.81989    38369.369 
   62000     304.9658   -1336.2203    415.49565    457.38781   -800.87664    38369.369 
   62100    295.92881    -1366.411    413.98489    384.84897   -745.09751    38369.369 
   62200    294.75598   -1340.9729    419.33907     410.3413   -844.13814    38369.369 
   62300    310.17073   -1336.8474    428.48982    493.27538   -384.16034    38369.369 
   62400    294.29982   -1368.3972    455.52482    417.04144   -112.37514    38369.369 
   62500    301.99111   -1382.2392    432.60121     415.0321   -68.417782    38369.369 
   62600    308.88346    -1350.303     453.3146    498.82751    360.81635    38369.369 
   62700    309.95799   -1325.0562    433.58524    509.20067   -74.809192    38369.369 
   62800    296.50872   -1366.3724    424.70042    398.22362    308.23134    38369.369 
   62900    291.72462   -1344.2424    405.07626    379.11061    120.65738    38369.369 
   63000     306.2822   -1327.5256    427.03072    483.56625   -225.64342    38369.369 
   63100    304.53027   -1366.2656    404.99853    414.87723    200.89596    38369.369 
   63200    297.86781   -1374.6266    412.78029    384.19087    12.613722    38369.369 
   63300     294.9142   -1374.8288    392.82817    350.68955    553.25712    38369.369 
   63400    297.82346   -1366.1842    410.65452     390.3071    580.77636    38369.369 
   63500     289.6265   -1404.4332    429.62644    333.98874    111.38477    38369.369 
   63600    288.28898   -1414.2192    408.46953    297.00171    728.59648    38369.369 
   63700     298.1315   -1440.5466    435.45388     342.1361      928.642    38369.369 
   63800    295.63381   -1400.6984    421.98039    357.22393    802.13499    38369.369 
   63900    296.62701   -1405.5224    432.16399    367.07175    452.52964    38369.369 
   64000    290.97009   -1414.5049    422.64242    323.00459    391.13792    38369.369 
   64100    304.28495   -1362.2136    404.45461    417.27673    326.91107    38369.369 
   64200    300.53549   -1364.9826     430.2627    423.37232    663.23649    38369.369 
   64300    295.71811   -1428.0228    419.56375    327.86394    376.49739    38369.369 
   64400    293.02082   -1404.0376    421.88521    341.98178   -82.719515    38369.369 
   64500     280.5729    -1426.238    429.17556    270.82064   -308.43177    38369.369 
   64600    305.72054   -1336.8792    421.08149    465.72532    22.908125    38369.369 
   64700    310.75712   -1349.0731    439.34598    494.55571   -156.66035    38369.369 
   64800    314.99894   -1346.4048    425.90822    502.95467   -21.563851    38369.369 
   64900    298.17288   -1375.7368    427.17076    398.84978    116.31202    38369.369 
   65000     300.2644    -1368.301    431.61897    420.18513   -331.83015    38369.369 
   65100    311.06448   -1353.7708    414.00836     465.9093    -262.3227    38369.369 
   65200    297.42343   -1354.8287    435.11974    424.32011   -55.951984    38369.369 
   65300    302.84386   -1362.4513    418.65499    424.72724    385.57177    38369.369 
   65400    300.62948   -1348.4438    434.29792    444.37107   -24.283564    38369.369 
   65500    284.14206   -1374.2525    398.24045    307.99982    111.51525    38369.369 
   65600    303.54371   -1371.6336     408.5602    408.61269    683.87388    38369.369 
   65700    310.30094    -1345.884    445.33602    501.67338    384.66076    38369.369 
   65800    307.15737   -1383.5223    396.53542    401.02909    278.39387    38369.369 
   65900    305.94285   -1363.3925    454.19446    473.32963    778.05239    38369.369 
   66000    307.54595   -1388.9556    421.69849    422.51469    101.50301    38369.369 
   66100    293.93219   -1393.6294    428.59996    363.22309    307.60638    38369.369 
   66200    306.20748   -1333.0441    431.50595    482.18532     152.5214    38369.369 
   66300    300.02105    -1315.071    415.11229    455.80885   -171.18021    38369.369 
   66400     296.8424   -1331.8543     447.4099    456.95916    346.21893    38369.369 
   66500     303.9543   -1338.5744    469.65635    504.62346    800.40335    38369.369 
   66600    294.34818   -1337.6242    458.83973    451.34784    365.77153    38369.369 
   66700    290.24286   -1333.0053    429.01239    407.58792   -214.88887    38369.369 
   66800    295.12598   -1344.6884    423.29088    412.24964   -347.48183    38369.369 
   66900    301.76223   -1355.1918     418.9252    427.36919   -155.27117    38369.369 
   67000     298.9624   -1357.5411    435.87807    429.32054    371.53604    38369.369 
   67100    294.86281   -1395.1923    423.79272    361.05839    403.97773    38369.369 
   67200    305.85659   -1353.0714    452.18492    481.25134    378.06525    38369.369 
   67300    313.62457   -1325.0804     413.6095     505.7697    544.47165    38369.369 
   67400    301.06693   -1373.5479    426.36651    413.31235    499.98825    38369.369 
   67500    302.72704   -1345.2431    430.46711    453.21961    235.37368    38369.369 
   67600    306.51687   -1383.8125    412.12024    413.42929   -50.097317    38369.369 
   67700    298.44395   -1354.0445    448.58795    443.18426   -232.23034    38369.369 
   67800    296.15908   -1330.8886    447.20622    454.63321   -321.04547    38369.369 
   67900    308.70245   -1350.6596    437.50522     481.8436   -899.04123    38369.369 
   68000    303.68903   -1350.4781    438.36563    460.23033    -469.0112    38369.369 
   68100    295.57571   -1274.9716    449.87367    510.58157   -53.614504    38369.369 
   68200    302.16335   -1359.7776     430.0462    435.71701    23.723142    38369.369 
   68300    294.53346   -1316.8844    425.69785    439.78307    54.121911    38369.369 
   68400    288.45854   -1320.1927    450.35991    433.68484    36.385065    38369.369 
   68500    307.61197   -1368.8729    432.08431    453.28162    535.95329    38369.369 
   68600    292.57402   -1288.6067    445.36595    478.87435   -68.131268    38369.369 
   68700    306.72268   -1311.0258    441.01995    516.04579   -31.714684    38369.369 
   68800    302.76309   -1343.1449    464.05406    489.06768   -89.911645    38369.369 
   68900    291.34565    -1361.294    434.56254    389.83272    403.18511    38369.369 
   69000    298.74282   -1305.8189    428.00237    472.17478    7.0421561    38369.369 
   69100    295.45518    -1355.662    425.98091    405.45366    166.36603    38369.369 
   69200    302.93571   -1315.3443    423.31435    476.90866   -364.32215    38369.369 
   69300    289.01386   -1374.3182    449.99698    381.70584    137.17101    38369.369 
   69400    298.50113   -1344.5715     433.5431    437.87078    262.79781    38369.369 
   69500     296.6779    -1363.177    428.89579    406.37896    184.07184    38369.369 
   69600    302.56746   -1299.4649    444.90714    512.71675    112.70534    38369.369 
   69700    294.10542   -1319.5748    454.93362    464.39411    277.27831    38369.369 
   69800    306.69021   -1337.7718    455.40557    503.53866     449.2423    38369.369 
   69900    291.63217   -1341.7727    424.66856    400.75486    255.49459    38369.369 
   70000    301.47938   -1349.1974    432.25595    445.41617    659.07535    38369.369 
   70100    304.26365   -1335.8413    453.19655    492.29475    250.58876    38369.369 
   70200    303.62318   -1342.9625    426.20529    455.28797      228.123    38369.369 
   70300    290.99232   -1352.9902    444.10087    406.07815    308.02236    38369.369 
   70400    294.17328   -1334.9157    455.68782    450.11412    286.51451    38369.369 
   70500    311.97145   -1394.4315    438.49624    453.83502    278.31974    38369.369 
   70600    309.01863   -1353.1833    452.39743    495.64092   -362.65614    38369.369 
   70700    299.62138   -1352.9354    459.76097    460.78706   -274.01945    38369.369 
   70800    302.26782   -1331.6034    457.65552    491.97256   -175.96021    38369.369 
   70900    292.94513   -1347.6192     439.3314    415.50428    259.12558    38369.369 
   71000    295.02644    -1341.507     426.7602    418.45058   -155.31602    38369.369 
   71100    297.29801   -1344.8676    445.93304    444.52784    37.646008    38369.369 
   71200    302.33286   -1327.6542    469.80347     508.3636      464.813    38369.369 
   71300    317.62138   -1306.8812    430.08278    558.50339   -158.14802    38369.369 
   71400    301.23251   -1341.5167    452.46179    472.18708    108.36425    38369.369 
   71500    285.90994   -1323.8291    438.55136      406.723     514.5692    38369.369 
   71600    304.58162   -1378.4303    438.55866    436.50471    789.60494    38369.369 
   71700    293.32427   -1399.1299    456.60217     382.9777    775.75031    38369.369 
   71800     301.6766   -1398.1853    448.53572    413.59923    875.07381    38369.369 
   71900    310.34975   -1384.4997     447.9041    465.84638    225.12192    38369.369 
   72000    293.51697   -1361.6813    460.29577     424.9907    417.40882    38369.369 
   72100    306.75618   -1352.0339    448.18815    482.35719     345.9187    38369.369 
   72200    294.96591   -1352.7538    449.08203    429.25203     345.7813    38369.369 
   72300    294.40317   -1369.5639    429.65453    390.47148    308.40305    38369.369 
   72400    300.90823   -1362.1612    469.46585    467.08122   -462.24385    38369.369 
   72500    306.25536   -1346.5471    456.69056    494.08325    16.675061    38369.369 
   72600    307.43196   -1373.7057    440.21485    455.76586   -203.60102    38369.369 
   72700    296.63611    -1368.454    451.69541    423.71274   -169.05075    38369.369 
   72800    302.29671   -1365.5517    460.45179    460.95111    254.05652    38369.369 
   72900    297.67257   -1416.4777    451.08022     379.7575   -394.34792    38369.369 
   73000    306.75535   -1394.3854    432.67175    424.48559   -328.28907    38369.369 
   73100    299.11096    -1396.881     446.6427    401.41656   -324.38518    38369.369 
   73200    291.95715    -1310.698    471.08958    479.71912    8.7185751    38369.369 
   73300    302.29027   -1387.7736    444.84128    423.08963    -154.8396    38369.369 
   73400    300.32758   -1383.6406    435.92785    409.44002   -496.58693    38369.369 
   73500    294.20012   -1368.0679    441.61996    403.01539   -425.03349    38369.369 
   73600    301.10056   -1344.4472     434.7474    450.94589   -187.61669    38369.369 
   73700    306.62274   -1357.2461     457.0702    485.42404   -414.81437    38369.369 
   73800    306.48544   -1323.1424    441.98697    503.82406    49.916727    38369.369 
   73900    297.89386   -1344.9003    449.58607    450.84077    9.9341777    38369.369 
   74000      304.718   -1373.8375    412.25049    415.40557    105.29225    38369.369 
   74100    303.79275   -1387.1995    444.99931    430.61131   -223.37525    38369.369 
   74200    316.49071    -1366.293    432.51902    496.41845    213.08658    38369.369 
   74300    294.98769   -1354.4621    440.69896    419.25914   -146.77642    38369.369 
   74400    299.62142   -1389.8118    448.62166    412.77147   -773.32326    38369.369 
   74500    294.74011   -1364.0069    447.25594    415.15245    259.01813    38369.369 
   74600    295.20723   -1362.5208    448.37507    419.86854     400.1654    38369.369 
   74700    292.48759   -1382.4873    450.30587    389.54309    213.48259    38369.369 
   74800    291.59322   -1388.1262    447.56606    377.12278    538.30328    38369.369 
   74900    307.10815   -1381.5475    457.29967    463.54567    866.18204    38369.369 
   75000    299.96643   -1375.5059    430.92611    410.94087     658.9109    38369.369 
   75100    298.04188   -1358.4737    451.12682    439.47702   -230.47843    38369.369 
   75200    303.76569   -1399.6986    442.27525     415.2659    392.59301    38369.369 
   75300    294.06224   -1377.2316     458.2022    409.81079    183.16388    38369.369 
   75400    305.92755   -1357.7178    460.52329    485.26399    444.99286    38369.369 
   75500    301.64416   -1393.9206    447.51495    416.69655   -16.159424    38369.369 
   75600    292.62191   -1345.7814    457.42036    433.97044    -262.7536    38369.369 
   75700    302.09908   -1372.0255    457.77154    450.90403   -431.86715    38369.369 
   75800    295.97886   -1346.0917    467.13002    458.53954      163.747    38369.369 
   75900     289.9651    -1365.167     448.8955    394.05416    267.44023    38369.369 
   76000    300.91059   -1351.0328    439.66378     448.4182   -13.980533    38369.369 
   76100    287.75706   -1321.4901    432.11122     410.9688   -569.31192    38369.369 
   76200    303.00421   -1311.4645     427.6323    485.41593   -404.20546    38369.369 
   76300     301.8161   -1309.6575    446.89805    501.11973   -294.71544    38369.369 
   76400    295.71691   -1349.7645    462.33924    448.89225   -469.32414    38369.369 
   76500    308.63268   -1357.7618    433.35233     470.2732   -109.71244    38369.369 
   76600    295.28116   -1349.3324    453.82101    438.83701   -237.63892    38369.369 
   76700    303.63097   -1340.6216    450.59502    482.05383   -721.85273    38369.369 
   76800    292.80584   -1398.3578    440.91803    365.72288   -309.45851    38369.369 
   76900    310.13038   -1382.6704    449.56532    468.34554   -218.77179    38369.369 
   77000    279.21053   -1399.3187    450.76676    313.17475    206.32428    38369.369 
   77100    302.62804   -1357.2927    447.68618    457.94177    647.08891    38369.369 
   77200     292.8805   -1383.9429    432.18563    371.74273    344.25638    38369.369 
   77300    299.72221    -1412.485    464.19651    406.12863    450.06652    38369.369 
   77400    309.30395   -1391.5569    424.48038    430.63961    409.75092    38369.369 
   77500    304.94187   -1361.2378    447.98368    464.75012    747.30894    38369.369 
   77600    312.57163   -1354.0847    462.28764     520.6854   -267.57269    38369.369 
   77700    306.43623   -1377.9607    436.51968     443.3161   -190.88952    38369.369 
   77800    301.99779   -1334.8401    467.54351    497.40361    118.12952    38369.369 
   77900    295.72232   -1334.3401    466.41955    468.42145   -432.01852    38369.369 
   78000    301.42331   -1337.8045    478.11358    502.41326   -12.284432    38369.369 
   78100    293.63002   -1396.8022    453.98299    384.06784   -212.80437    38369.369 
   78200    297.62895   -1383.2077    428.96172    390.71183   -57.947957    38369.369 
   78300    295.41048   -1412.6961    434.11702     356.3537   -478.50301    38369.369 
   78400    304.08872   -1359.6391    482.91682    497.42667   -304.34496    38369.369 
   78500    296.00285   -1363.9008     441.5805    415.28938   -53.336762    38369.369 
   78600    297.38143   -1393.7889    468.22816    418.27864   -80.595211    38369.369 
   78700     303.5315   -1424.6486    448.70794    395.69029    516.07347    38369.369 
   78800    297.67889   -1401.4851    431.45299    375.15139    140.58017    38369.369 
   78900    290.01909   -1358.8096    462.47153    414.23151    411.12042    38369.369 
   79000    299.38961   -1379.4976    438.63041    412.04695    305.34956    38369.369 
   79100    299.20731   -1373.2585    483.89611    462.72794    188.24125    38369.369 
   79200     304.6576   -1398.8837    437.02132     414.8573   -125.26951    38369.369 
   79300    301.77702    -1376.353    441.07764    428.42726   -256.89825    38369.369 
   79400    296.06558   -1372.8035     479.3752    444.46486   -201.21377    38369.369 
   79500    289.76117   -1365.8111    441.06251    384.65553   -507.99257    38369.369 
   79600     292.9312   -1360.6652    463.81729    426.88125    -499.2621    38369.369 
   79700    304.91605    -1320.467    473.56233    530.98294   -73.997782    38369.369 
   79800    309.36559    -1407.046    454.99873    445.94742   -846.46701    38369.369 
   79900     289.1064    -1355.712    469.24397    419.97728   -861.15758    38369.369 
   80000    304.48421   -1370.9934    459.50542    464.44816   -533.00185    38369.369 
   80100    297.52239   -1396.5774    444.23492    392.13389   -631.22264    38369.369 
   80200    303.97264   -1344.8421    457.34937    486.13162    226.54421    38369.369 
   80300     293.6961   -1379.6243    464.15314    411.71453   -69.238902    38369.369 
   80400    315.03835   -1399.0207    459.10227    483.71084    559.68154    38369.369 
   80500    303.04726   -1382.9601    448.83297    435.31562    757.67175    38369.369 
   80600    309.95334   -1372.9176    451.64487    479.37786    320.88619    38369.369 
   80700    303.20875   -1332.0591    457.06612    495.17953    823.71547    38369.369 
   80800    298.60323   -1343.8967    489.89542    495.35921    243.80583    38369.369 
   80900    305.62768    -1414.996    464.85882    430.96619     711.2581    38369.369 
   81000    300.00808   -1380.3086    463.35589    438.75626    1260.2643    38369.369 
   81100    303.64971   -1387.5967    463.75505    448.32345    651.62058    38369.369 
   81200    301.23335   -1376.5943    453.14067    437.79215    399.59299    38369.369 
   81300    290.92935   -1361.3711    448.03418    401.34608    207.67781    38369.369 
   81400    299.19871   -1374.1381    449.77713    427.69051    43.352883    38369.369 
   81500    305.46573   -1325.5791    475.51831    530.31073   -83.477769    38369.369 
   81600    301.68081   -1360.3396    457.53751    460.46576   -496.39582    38369.369 
   81700    302.84994   -1344.5768     460.6486     484.6228   -394.24569    38369.369 
   81800    294.85418    -1350.589    484.72024    466.55019   -128.07063    38369.369 
   81900    311.52663   -1351.1176    467.93625    524.57884    150.81835    38369.369 
   82000    307.29695   -1378.2663    481.66335    492.04368     264.4255    38369.369 
   82100    309.90755   -1376.0865    466.25719    490.61443    220.56099    38369.369 
   82200     307.5599    -1391.497    457.11504    455.45298    620.09487    38369.369 
   82300    296.13254   -1408.3747    452.81846    382.63947    234.35723    38369.369 
   82400    304.78304   -1408.5066    469.85645    438.63635    276.12182    38369.369 
   82500    303.17208   -1450.2185    465.15008    384.93829     463.3156    38369.369 
   82600    309.95545   -1451.6841    471.70913    420.68523   -7.0082072    38369.369 
   82700    294.96864   -1415.9198     440.1901    357.20644   -21.518284    38369.369 
   82800    291.13025   -1437.8083    462.90467    340.68719   -284.17875    38369.369 
   82900    298.50405   -1447.3045    477.99648    379.60429    587.06555    38369.369 
   83000    300.22955   -1396.9199    493.83573    453.62557   -155.15843    38369.369 
   83100    292.22854   -1406.9145     463.1804    376.81974    -751.4289    38369.369 
   83200    298.93068   -1397.8023    453.27255    406.31048   -539.52711    38369.369 
   83300    306.38705   -1391.2258    473.26616     466.5753   -798.99459    38369.369 
   83400    300.69825   -1379.0415    464.83756    444.62376    37.373371    38369.369 
   83500    306.08935   -1396.4587    457.36632    444.09726   -325.70606    38369.369 
   83600    296.57777   -1441.2213    468.93641    367.92273   -72.800896    38369.369 
   83700    297.11675   -1436.2189    440.95796    347.38235    508.88413    38369.369 
   83800    300.77628    -1410.777    459.36064    407.76397    174.69085    38369.369 
   83900    306.52803   -1428.7335    449.98859    406.42704    181.46249    38369.369 
   84000    303.35131   -1429.5317    464.69956    405.98456    367.12645    38369.369 
   84100    311.72432   -1477.9957    437.04886    367.70669    478.06316    38369.369 
   84200    289.55455   -1464.5334    444.94011    288.87708    512.52821    38369.369 
   84300     303.4782   -1451.2007    465.18657    385.37598    939.03012    38369.369 
   84400    298.15228   -1444.7337    469.97725    372.56625    993.73083    38369.369 
   84500    299.02349   -1437.2153    462.48478    376.52911    107.81236    38369.369 
   84600    305.28244   -1438.1205    473.19685    414.61961    126.94399    38369.369 
   84700    295.62694   -1426.4945    483.43604    392.85254    67.622016    38369.369 
   84800    305.82592   -1454.0811    465.36059    393.27874   -463.72849    38369.369 
   84900    297.23973   -1435.6396    443.23282    350.79218   -277.31996    38369.369 
   85000    306.36573   -1463.3718    457.18506    378.25187   -416.61638    38369.369 
   85100    296.47175   -1456.4724    462.80252    346.05869   -909.54332    38369.369 
   85200    303.49484   -1427.5321    467.97541    411.90862   -1008.4234    38369.369 
   85300    295.89013   -1397.0895    485.91297    425.92378   -436.01897    38369.369 
   85400    293.61775   -1432.2212    470.70023    365.31061    267.40067    38369.369 
   85500     302.9787   -1446.3684     447.0166    369.78112    14.629265    38369.369 
   85600    299.69157   -1450.0951    453.68055    357.86413    427.65636    38369.369 
   85700    300.25633   -1490.0952    481.78782    348.52331    536.70386    38369.369 
   85800    301.14295   -1477.4223    483.04939    366.46438    91.993661    38369.369 
   85900    305.46221   -1470.8043    461.53606    371.08741    189.87251    38369.369 
   86000    307.25435    -1448.905    464.04445    403.59357    6.1033354    38369.369 
   86100    305.16963   -1441.0104    468.98779    407.01093   -580.34829    38369.369 
   86200    292.18152   -1437.9111     476.8808    359.31108   -365.59866    38369.369 
   86300     295.2111   -1443.6489    464.91713    355.30001   -190.82325    38369.369 
   86400    309.14745    -1469.948    451.39194    378.45289    729.49745    38369.369 
   86500    309.96959   -1466.2713    470.56947    405.02218    827.27701    38369.369 
   86600    293.76707   -1442.8687    467.73107    352.36873    717.84424    38369.369 
   86700    301.35372   -1439.4234    482.61993    404.98625    504.14553    38369.369 
   86800    311.87227   -1402.9343    481.08961    487.47742   -203.26976    38369.369 
   86900    302.84719   -1454.2101    475.85884     390.1873   -268.51607    38369.369 
   87000      305.698   -1500.4014    464.58034    345.60009    16.566181    38369.369 
   87100    297.42307   -1449.4737    483.51975    378.07356    130.40249    38369.369 
   87200    304.40154   -1474.6662    489.31442     390.2108   -151.21547    38369.369 
   87300    289.64885   -1444.2663    489.92381    354.55397    195.86041    38369.369 
   87400    300.71609   -1473.0507     464.7637    350.62134   -105.96652    38369.369 
   87500    292.83706    -1488.512    462.44307    297.23479   -18.778061    38369.369 
   87600    308.48356   -1445.2829    466.64909    415.37507   -6.2983897    38369.369 
   87700    293.80501   -1475.3379    478.97574    331.31563    100.01431    38369.369 
   87800    306.79052   -1513.5949    445.76164    318.52493    81.723848    38369.369 
   87900    297.79801   -1479.1637    473.02652    339.58468    148.70167    38369.369 
   88000    290.56408   -1466.7548    460.05148    306.32908    206.37658    38369.369 
   88100    291.55524   -1506.5753    468.44379    279.37984    515.47943    38369.369 
   88200    306.57904   -1516.0678    471.68448    341.01919    438.63192    38369.369 
   88300    301.60689   -1473.6899    462.08406    351.32793    542.76289    38369.369 
   88400    303.62568   -1476.4441    459.90338    355.51574   -15.726186    38369.369 
   88500    298.67567   -1492.5036    451.20602    308.39028    470.61269    38369.369 
   88600    290.07001   -1457.6332    492.96399    346.13042    -208.0789    38369.369 
   88700    302.65941   -1467.5768    472.55407     372.6673  -0.78322832    38369.369 
   88800    298.60418   -1479.7197     467.3233    336.96841   -56.043203    38369.369 
   88900     305.5386   -1469.3959    494.88015    406.18513   -213.10898    38369.369 
   89000    306.85572   -1441.6287    475.62363    420.64768   -60.332489    38369.369 
   89100    298.05897   -1442.9021    493.04537    397.04436     175.5383    38369.369 
   89200    308.58196   -1454.1059    458.25307    398.60068   -29.967344    38369.369 
[...]
  984800    292.49261   -1488.8529    487.13905    320.03339    105.10579    38369.369 
  984900    306.72299    -1473.081    483.95164    396.92364   -24.182703    38369.369 
  985000    295.18458   -1415.6375    473.06585    391.34036   -317.73567    38369.369 
  985100    293.22564   -1461.1965    482.71797    346.58116   -505.68242    38369.369 
  985200     307.9123   -1451.0488     492.1486    432.52717    274.05508    38369.369 
  985300    295.91166   -1446.9263    475.25002    365.52131    234.76273    38369.369 
  985400    303.98745   -1429.3077    508.42302     452.8066    -29.72887    38369.369 
  985500    301.14248   -1423.5323    477.86481    415.16764   -211.46956    38369.369 
  985600     297.2788   -1460.7887    469.02615    351.61295   -178.56601    38369.369 
  985700      299.168   -1476.6948    492.33581    367.55366   -238.31178    38369.369 
  985800     287.4603   -1476.0052    496.21261    319.21408     -444.158    38369.369 
  985900    275.72675   -1423.9323    493.68459    315.73613   -480.45197    38369.369 
  986000    299.19228   -1413.9683    505.09704     443.1511    72.379055    38369.369 
  986100    296.58143   -1433.8681     488.9525    395.30862    491.52745    38369.369 
  986200     297.1478   -1420.0043    461.84032    384.61963     53.27527    38369.369 
  986300    299.29649   -1486.8872    495.62138    361.22751    990.86353    38369.369 
  986400    302.33322   -1499.1281    482.76509    349.85305    460.60222    38369.369 
  986500    313.16386   -1502.1853    471.83235    384.80575    537.13607    38369.369 
  986600    296.69052   -1488.1576    461.77945    314.33901    509.94066    38369.369 
  986700    299.82603   -1475.7973    499.39934    378.48827    350.83939    38369.369 
  986800    297.71499   -1473.0588     466.5223    338.81021    278.53683    38369.369 
  986900    303.96251   -1479.5032    456.51578    350.59119    282.09072    38369.369 
  987000    299.35874   -1432.3642    488.12171     408.5321    76.151835    38369.369 
  987100    306.28755   -1490.8979    488.17285    381.36018    91.210925    38369.369 
  987200    300.92264   -1489.8155    492.26345    362.28966   -252.93985    38369.369 
  987300    295.05671   -1502.6104    483.31314     314.0369   -97.757063    38369.369 
  987400    300.64641   -1495.0012    484.88446    348.47674   -613.22693    38369.369 
  987500    308.66332   -1492.1571    465.38326    368.04731    -304.7625    38369.369 
  987600    301.64163   -1465.0889    472.19761    370.19954    -314.6714    38369.369 
  987700    287.94467   -1448.0668    467.19727    320.32592    -301.0726    38369.369 
  987800    297.61545   -1439.8123    499.53397    404.61855    192.34046    38369.369 
  987900    307.44991   -1459.1905    472.53992    402.68732    432.49332    38369.369 
  988000    295.52145   -1466.6146    490.57926    359.39889    318.30661    38369.369 
  988100    292.25262   -1465.7816    471.33267    326.21378   -227.41362    38369.369 
  988200    301.29003   -1513.4555    461.15214    309.19858    6.7277813    38369.369 
  988300    312.83417   -1515.6517    446.75628    344.77346   -336.09157    38369.369 
  988400    306.04392   -1458.4723    501.28861     425.8006    181.39395    38369.369 
  988500    311.24863   -1431.1782    469.05926      444.385    482.46299    38369.369 
  988600    296.99054   -1419.3383    490.19607    412.93071    67.615442    38369.369 
  988700    287.55029   -1449.1556    470.45707    320.71482   -238.78138    38369.369 
  988800    301.98278   -1428.9469    485.07612    420.76165   -801.84842    38369.369 
  988900    304.97658   -1444.7726    503.91356    437.30208   -541.79835    38369.369 
  989000    295.03383   -1399.0329    459.76844    393.96625     185.6122    38369.369 
  989100    303.68054   -1369.1631    501.37587    504.51722     80.39898    38369.369 
  989200    300.97312   -1439.6645    486.79911    407.20444    379.88554    38369.369 
  989300    300.51191   -1438.4241    470.02385     389.5854    474.32253    38369.369 
  989400    297.35628   -1441.2866    467.12818    369.56727    583.26573    38369.369 
  989500    301.07418   -1448.9955    487.80612    399.33712    610.03136    38369.369 
  989600    302.71517   -1483.8217    482.44521    366.56554    963.72269    38369.369 
  989700    292.99484   -1455.8206    488.47191     356.6681    1041.7895    38369.369 
  989800    297.20504    -1465.809    478.66311    355.89632    874.06326    38369.369 
  989900    305.44835   -1423.8863    465.01303    421.41968    771.82895    38369.369 
  990000    304.92609   -1461.9183    468.12858    384.14327    233.83112    38369.369 
  990100    302.57688   -1473.6365    470.58759    364.26821    404.20755    38369.369 
  990200    295.31978   -1473.1017    487.02096    348.44215     277.1684    38369.369 
  990300    304.83793   -1459.3759    475.72694     393.8856    400.61127    38369.369 
  990400    296.42521   -1429.8405    490.69774    400.37552   -350.18623    38369.369 
  990500    295.10579   -1456.9782    483.45222    360.02998   -529.01227    38369.369 
  990600    295.58547   -1460.3534    474.97993    350.35011    20.547991    38369.369 
  990700    299.63986   -1453.5464    469.53301    370.03153    239.34841    38369.369 
  990800    297.77942   -1435.2343    492.21666    402.62014    287.20348    38369.369 
  990900    306.06835   -1418.1883    472.12618    437.03267    -102.7441    38369.369 
  991000     290.5754   -1378.6668    499.56779    433.98453   -10.218759    38369.369 
  991100    302.05423   -1398.1583    486.37161    453.16859   -40.261257    38369.369 
  991200    300.37489   -1403.6899    497.69885     451.3754    235.03112    38369.369 
  991300    301.56963   -1402.9173    513.78901    473.63718   -309.55142    38369.369 
  991400    297.09372   -1393.1828    483.75261    433.10898   -495.56768    38369.369 
  991500    295.08579   -1430.7261    503.62925    406.36874   -511.38647    38369.369 
  991600    293.08753   -1481.2288    430.40181    273.60862   -1018.5426    38369.369 
  991700    302.26754   -1417.2543    512.34662    461.01157   -594.30372    38369.369 
  991800    297.73408   -1410.9325    466.10594    400.60641   -583.58253    38369.369 
  991900    297.26426   -1420.6607    456.89224    379.54135   -644.89715    38369.369 
  992000    309.57334   -1486.3026    448.08401    360.71486   -388.56687    38369.369 
  992100     299.4421   -1494.9973    471.28243    329.43643    10.457205    38369.369 
  992200    299.00674   -1493.3608    491.29096    349.11408   -15.433558    38369.369 
  992300    302.02766   -1453.0376    480.39097    392.18863    443.43721    38369.369 
  992400    293.32254   -1487.2875    473.79133    312.00144   -415.16294    38369.369 
  992500    300.31804   -1469.5242     490.1109    377.69631   -302.23614    38369.369 
  992600    294.32843   -1462.3092    478.75403    346.48791   -731.17338    38369.369 
  992700    296.05793   -1433.3116    471.53116    376.07811   -328.92831    38369.369 
  992800    290.97619   -1478.0194    476.85824    313.73354   -329.49506    38369.369 
  992900    311.18362   -1473.5808    499.84946    432.47881    450.09664    38369.369 
  993000    303.38476   -1411.4205    495.62505    455.17241    46.826341    38369.369 
  993100    294.36975   -1472.4977    501.55916    359.29124    175.05668    38369.369 
  993200    304.83362   -1481.9037    473.71736    369.32875   -286.74353    38369.369 
  993300    299.88126   -1504.2209    470.95807    321.87303   -269.05028    38369.369 
  993400    286.23595   -1454.5281    497.70544    336.65128   -340.13722    38369.369 
  993500    307.18253   -1436.6194    514.14585    465.65602    359.69194    38369.369 
  993600     290.3782   -1428.2151    506.21692    390.19421    606.65667    38369.369 
  993700    293.42263    -1448.092    511.39774    389.25566    491.97855    38369.369 
  993800    306.47699    -1430.138    509.76936    464.57266    310.95856    38369.369 
  993900    306.59546    -1430.329    494.39421     449.5419    149.90783    38369.369 
  994000    306.91865   -1450.5628    499.99399    436.36834   -356.63111    38369.369 
  994100    294.02163   -1420.9031    499.94693    407.70048   -513.65352    38369.369 
  994200    307.21928   -1441.3235    498.04827    445.02046    187.78144    38369.369 
  994300    296.71586   -1445.3362    497.88499    393.38051   -90.295457    38369.369 
  994400    295.01486   -1419.2613    503.82897    417.71272    175.00055    38369.369 
  994500    287.28542    -1454.272    489.88017     333.8246    91.177616    38369.369 
  994600    298.70612   -1441.0583    505.24612    414.01328   -173.56403    38369.369 
  994700    313.09027   -1436.8344    497.73863    475.73034    -293.5515    38369.369 
  994800    289.79065   -1428.7866     489.8968    370.64755    69.149378    38369.369 
  994900     301.1415   -1424.0688    490.44358    427.20548   -71.721007    38369.369 
  995000     294.3706   -1444.8417    513.29645    398.68836    8.0145424    38369.369 
  995100    296.08928   -1467.2049     490.8233    361.61863   -94.503297    38369.369 
  995200    297.98709   -1458.4621    496.84392    384.95806    577.12196    38369.369 
  995300    291.13029   -1469.6568    500.57413     346.5084    615.01464    38369.369 
  995400     293.0069   -1483.1815    480.71644    321.60614    666.60196    38369.369 
  995500    300.66635   -1442.3035    483.54903    399.92916    564.75007    38369.369 
  995600     306.0016    -1424.147    496.42905    455.07515     532.1726    38369.369 
  995700    299.58969   -1471.9951    479.57192    361.39505    40.432192    38369.369 
  995800    298.24388   -1502.1147     472.0274    317.64932   -264.26122    38369.369 
  995900    299.75089   -1436.4039    515.84841    433.99118   -538.56207    38369.369 
  996000    292.50416   -1390.6132     516.5851    447.77132   -605.18447    38369.369 
  996100    314.02994   -1466.0238     489.9677    443.01638   -82.543567    38369.369 
  996200     305.0547   -1475.6973    513.95002    416.76687     646.6496    38369.369 
  996300    308.21088   -1483.9084    485.91018    394.77837    760.75733    38369.369 
  996400    288.98648   -1446.6679    513.53498    372.77042    620.65677    38369.369 
  996500    300.43223   -1448.1848    501.91276    411.35357    916.61061    38369.369 
  996600    304.82367   -1444.0919    499.59242    432.97062    906.21045    38369.369 
  996700    291.61654   -1462.6846    512.48149    367.58515    413.39902    38369.369 
  996800    289.75488   -1440.6109    484.15708    352.92183    298.82023    38369.369 
  996900    306.36745   -1395.2635    510.22408    499.40689    299.86344    38369.369 
  997000    294.55758   -1446.2582    484.45387    369.27432    14.011256    38369.369 
  997100    297.36225   -1444.7242    499.45871     398.4872   -71.184885    38369.369 
  997200    282.35559   -1450.3106    493.83499    319.46334   -282.01995    38369.369 
  997300    298.81153   -1465.7708    498.31057    382.84163    572.38626    38369.369 
  997400    306.21195   -1466.9006     489.2894    406.13246    420.02797    38369.369 
  997500    304.48703   -1505.1183    491.93603    362.76662    141.86912    38369.369 
  997600    306.81257   -1469.1582    473.38825    390.68782     9.583623    38369.369 
  997700    299.89641   -1481.3883    482.52599    356.34192   -124.90104    38369.369 
  997800    298.67171   -1466.6469      491.445    374.46811    3.4578583    38369.369 
  997900     292.1826   -1514.8921    483.01829    288.47243   -568.57332    38369.369 
  998000    304.99565   -1496.3986    485.55208    367.40075   -442.64052    38369.369 
  998100    295.23022   -1441.3906    476.82162    369.54924   -816.38845    38369.369 
  998200    299.18947   -1430.3375    488.89844    410.57061   -385.30539    38369.369 
  998300    314.74255   -1512.2972    499.46687    409.46235   -211.18872    38369.369 
  998400    301.36578   -1482.2605    513.08286    392.66662    449.95015    38369.369 
  998500    298.21157   -1494.4313    484.32898    337.48831    198.80324    38369.369 
  998600    296.55466   -1557.3806    509.67116    292.39375    264.84852    38369.369 
  998700    310.15524   -1522.1879     492.1079    371.48307    54.655823    38369.369 
  998800    294.17748     -1529.23    476.09565    276.22658    236.61291    38369.369 
  998900    295.06503   -1507.7483    475.67074    301.29419    167.01072    38369.369 
  999000    305.54197   -1513.1819    510.43447    377.96861    64.424318    38369.369 
  999100    297.90217   -1529.0598    497.64716    314.77984    418.59105    38369.369 
  999200    301.55055   -1500.1575    482.47052    344.99223    2.2640902    38369.369 
  999300    293.13027   -1460.4536    502.50813    366.68326    297.56365    38369.369 
  999400    307.43122   -1494.9867    496.41948    390.68622   -172.56859    38369.369 
  999500     290.1683   -1519.8939    509.36085    300.71083   -289.47069    38369.369 
  999600    298.87461   -1512.7249    488.52379    326.38572   -226.51091    38369.369 
  999700    301.99677   -1488.9275    495.86382    371.63196   -786.87691    38369.369 
  999800    292.21061   -1505.5121    490.90901    305.86975   -938.03641    38369.369 
  999900    304.13942   -1451.7329    480.34419    402.98939    235.83831    38369.369 
 1000000    303.33105    -1467.981    494.41923    397.16337    424.34178    38369.369 
 1000100    294.88442   -1481.4959    503.78665    354.84638    117.61688    38369.369 
 1000200      301.093   -1461.8483    493.31249    392.07573   -367.25866    38369.369 
 1000300    304.56159   -1459.1905    494.24662    411.34197   -500.97146    38369.369 
 1000400    306.59624   -1477.6441    502.65427    410.49035   -149.44311    38369.369 
 1000500    300.30313   -1499.1684    501.94108    359.81497    526.44242    38369.369 
 1000600     298.2112   -1477.0942    487.40901     357.9038    415.98096    38369.369 
 1000700    308.50539   -1517.2406    480.80379    357.67073    96.209851    38369.369 
 1000800     291.3395   -1451.4348    518.41662    383.51825    637.12861    38369.369 
 1000900    295.44516   -1443.8989    523.55788    414.74851    4.8596603    38369.369 
 1001000    314.71928   -1496.3051    489.85554    415.73793   -292.21573    38369.369 
 1001100    290.89426   -1466.4027    509.97804    358.09972   -582.01959    38369.369 
 1001200    292.39804   -1454.0336    493.36845    360.65468   -392.28734    38369.369 
 1001300    301.03929   -1450.3964    515.29798    425.27045     40.46408    38369.369 
 1001400    301.11434   -1496.5683    535.43532    399.57502    112.32222    38369.369 
 1001500     308.1546   -1462.5835    498.86618    428.80502    310.17324    38369.369 
 1001600    308.35195   -1474.4142     495.1637    414.16363    507.59273    38369.369 
 1001700    295.89537   -1466.7609    505.17913    375.54219    480.64366    38369.369 
 1001800    288.58773   -1468.5478    538.51149     374.0651    483.07268    38369.369 
 1001900    297.82767   -1472.2617     473.4677    347.06185    642.26837    38369.369 
 1002000    297.42776   -1485.0339    531.83595    390.85072    399.55825    38369.369 
 1002100    299.96833    -1499.593    503.67641    359.61273    429.02932    38369.369 
 1002200    299.76094   -1474.2405    505.51336      385.865    340.85008    38369.369 
 1002300    302.69147   -1521.9344    518.33215    364.23268    557.26181    38369.369 
 1002400    300.52805   -1522.1554    474.71273    310.61599    461.36062    38369.369 
 1002500    295.53341   -1517.8853    492.29861    309.90157    487.70399    38369.369 
 1002600    300.46413   -1486.9462    487.52432    358.34795   -230.31493    38369.369 
 1002700    301.10536   -1436.0558    498.70508    423.31669   -432.97291    38369.369 
 1002800    304.95421   -1457.6759    480.60433    400.98849   -64.652273    38369.369 
 1002900    306.35904   -1473.6953    463.95978    374.67277   -252.15785    38369.369 
 1003000    296.59626   -1458.2669    486.10256    368.12688   -659.99577    38369.369 
 1003100    303.96974   -1479.4502    511.51307    405.67416   -925.82327    38369.369 
 1003200    307.41843   -1459.9696     487.4099    416.63595   -446.42418    38369.369 
 1003300    291.47951   -1504.4548    500.57143    313.28567   -1023.3004    38369.369 
 1003400    294.92414   -1500.2681    486.57344    319.04043    -422.9666    38369.369 
 1003500    293.40218   -1486.4657     470.0443    309.43602   -202.45506    38369.369 
 1003600    301.67097   -1473.7279    478.40577    367.90117    317.37593    38369.369 
 1003700    287.57217   -1427.6232    490.24918    362.13814   -476.46207    38369.369 
 1003800     302.9912   -1447.9184    497.62487    418.89584   -536.96735    38369.369 
 1003900    311.10395   -1480.0483    466.38811       392.19   -246.68817    38369.369 
 1004000    296.25001   -1499.0905    480.57092    320.20701   -540.94584    38369.369 
 1004100    304.95364   -1475.2701    510.16026    412.94762   -89.203877    38369.369 
 1004200    301.25277   -1520.3891     504.7281    345.67258    217.12334    38369.369 
 1004300    297.06421   -1583.3459    481.46252    240.52248   -192.42439    38369.369 
 1004400    300.66457   -1532.8535    485.75183     311.5739   -27.288096    38369.369 
 1004500    304.56075   -1530.7086    468.22214    313.79554     524.6168    38369.369 
 1004600    294.56639   -1539.8303    480.20409     271.4922    186.72917    38369.369 
 1004700    296.94045   -1550.8124    477.92415    268.95832    740.59069    38369.369 
 1004800    309.22369   -1540.6487    482.24863    338.95333     683.0014    38369.369 
 1004900    303.61684   -1541.5263    495.39183    325.88213    331.26205    38369.369 
 1005000    310.69809   -1518.7007     473.7629     359.0783    257.35523    38369.369 
 1005100    308.10034   -1503.1109    498.39746     387.5637     263.6738    38369.369 
 1005200    289.67748   -1501.1391    506.34547    314.23226    -118.6543    38369.369 
 1005300     300.5372   -1484.0592    480.93263    354.97336    331.26331    38369.369 
 1005400     302.1862    -1476.551    510.55122    399.55184   -405.01341    38369.369 
 1005432    310.24543    -1459.386     503.0927    445.67725   -36.042165    38369.369 
Loop time of 601.701 on 32 procs for 1000000 steps with 1517 atoms

Performance: 143.593 ns/day, 0.167 hours/ns, 1661.956 timesteps/s
100.0% CPU use with 32 MPI tasks x no OpenMP threads

MPI task timing breakdown:
Section |  min time  |  avg time  |  max time  |%varavg| %total
---------------------------------------------------------------
Pair    | 229.3      | 268.31     | 305.14     | 122.4 | 44.59
Bond    | 1.389      | 1.5971     | 1.7377     |   7.4 |  0.27
Neigh   | 39.406     | 39.475     | 39.533     |   0.6 |  6.56
Comm    | 243.97     | 280.6      | 319.7      | 119.5 | 46.63
Output  | 0.38615    | 0.40519    | 0.9034     |  14.1 |  0.07
Modify  | 8.2647     | 8.5563     | 8.8776     |   6.4 |  1.42
Other   |            | 2.755      |            |       |  0.46

Nlocal:        47.4062 ave          83 max          17 min
Histogram: 3 1 3 5 7 4 5 2 1 1
Nghost:        1983.97 ave        2104 max        1871 min
Histogram: 7 8 1 0 0 0 0 3 7 6
Neighs:        5444.44 ave       10876 max        1537 min
Histogram: 5 2 1 8 5 4 2 4 0 1

Total # of neighbors = 174222
Ave neighs/atom = 114.84641
Ave special neighs/atom = 2.0382334
Neighbor list builds = 49796
Dangerous builds = 0

# Output the system volume
variable v equal vol
print 'The system volume is $v'
The system volume is 38369.3687683965

# Outputs
variable A equal xhi-xlo
variable B equal yhi-ylo
variable C equal zhi-zlo
variable D equal xy
variable E equal xz
variable F equal yz
print 'Lattice vectors'
Lattice vectors
print '$A 0 0'
33.7283336072484 0 0
print '$D $B 0'
0 33.7283336072484 0
print '$E $F $C'
0 0 33.7283336072484
Total wall time: 0:10:06
