LAMMPS data file
 1510 atoms
 1009 bonds
 515 angles
 12 dihedrals
 1 impropers
 5 atom types
 4 bond types
 3 angle types
 1 dihedral types
 1 improper types
 0 15 xlo xhi
 0 15 ylo yhi
 0 15 zlo zhi
 0 0 0 xy xz yz

# Atom types
#
# 1 N_2
# 2 C_3
# 3 H_
# 4 H__HB
# 5 O_3

# Bond Coeffs
#
# 1 N_2*C_3
# 2 C_3*H_
# 3 N_2*H__HB
# 4 O_3*H__HB

# Angle Coeffs
#
# 1 N_2
# 2 C_3
# 3 O_3

# Dihedral Coeffs
#
# 1 B1

# Inversion Coeffs
#
# 1 1

 Masses

 1 14.01
 2 12.01
 3 1.01
 4 1.01
 5 16

 Atoms # full

1 1 1 0 12.2861665055937 1.1325429482362 6.82523373005157
2 1 2 0 11.9204191343759 0.123510240794102 7.7864141999735
3 1 2 0 11.7425518702418 2.4587626191234 6.97053687104665
4 1 3 0 12.2550297521013 0.420326294049121 8.78247663528344
5 1 3 0 12.3586615017849 -0.852631683004927 7.56080473206557
6 1 3 0 10.8352805366668 0.00237120548145997 7.80329785732019
7 1 3 0 12.0130498246743 2.86600901606054 7.9469240528703
8 1 3 0 10.6537709392407 2.42431623625746 6.89471773760502
9 1 3 0 12.1112463324381 3.15207325622858 6.20939689441779
10 1 4 0 13.1263579381755 0.836862054831372 5.79303289402619
11 2 4 0 4.50342984681018 6.43190394313075 6.25729582970962
12 2 5 0 5.46342984681018 6.43190394313075 6.25729582970962
13 2 4 0 5.70342984681018 5.50190394313075 6.25729582970962
14 3 4 0 3.22876797334291 10.9913877262175 12.9549698391929
15 3 5 0 4.18876797334291 10.9913877262175 12.9549698391929
16 3 4 0 4.42876797334291 10.0613877262175 12.9549698391929
17 4 4 0 13.2090455798618 10.7005574092641 1.53283934807405
18 4 5 0 14.1690455798618 10.7005574092641 1.53283934807405
19 4 4 0 14.4090455798618 9.77055740926415 1.53283934807405
20 5 4 0 3.22484530203044 14.2195811347943 1.63426939048804
21 5 5 0 4.18484530203044 14.2195811347943 1.63426939048804
22 5 4 0 4.42484530203044 13.2895811347943 1.63426939048804
23 6 4 0 11.367994243484 7.06681183929555 3.0178636056371
24 6 5 0 12.327994243484 7.06681183929555 3.0178636056371
25 6 4 0 12.567994243484 6.13681183929555 3.0178636056371
26 7 4 0 7.24613093465567 0.704482873380184 4.53845522599295
27 7 5 0 8.20613093465567 0.704482873380184 4.53845522599295
28 7 4 0 8.44613093465567 -0.225517126619816 4.53845522599295
29 8 4 0 8.98348733011633 2.04138994723558 0.618681128835306
30 8 5 0 9.94348733011633 2.04138994723558 0.618681128835306
31 8 4 0 10.1834873301163 1.11138994723558 0.618681128835306
32 9 4 0 0.777135465033352 13.013519781353 11.8440345721319
33 9 5 0 1.73713546503335 13.013519781353 11.8440345721319
34 9 4 0 1.97713546503335 12.083519781353 11.8440345721319
35 10 4 0 8.29682236231863 14.8409637580067 8.8847639481537
36 10 5 0 9.25682236231864 14.8409637580067 8.8847639481537
37 10 4 0 9.49682236231864 13.9109637580067 8.8847639481537
38 11 4 0 7.26928697942756 15.2473233376537 7.95156741980463
39 11 5 0 8.22928697942756 15.2473233376537 7.95156741980463
40 11 4 0 8.46928697942756 14.3173233376537 7.95156741980463
41 12 4 0 2.69963493148796 4.94344826712273 8.31880634184927
42 12 5 0 3.65963493148796 4.94344826712273 8.31880634184927
43 12 4 0 3.89963493148796 4.01344826712273 8.31880634184927
44 13 4 0 1.73055240578949 14.905286839176 8.88136375229806
45 13 5 0 2.69055240578949 14.905286839176 8.88136375229806
46 13 4 0 2.93055240578949 13.975286839176 8.88136375229806
47 14 4 0 0.713142288587987 2.88413673680276 12.0574561937246
48 14 5 0 1.67314228858799 2.88413673680276 12.0574561937246
49 14 4 0 1.91314228858799 1.95413673680276 12.0574561937246
50 15 4 0 0.897792451288551 2.66487927799113 9.91306736483239
51 15 5 0 1.85779245128855 2.66487927799113 9.91306736483239
52 15 4 0 2.09779245128855 1.73487927799113 9.91306736483239
53 16 4 0 6.34303864368238 1.54468787176535 1.52125043445267
54 16 5 0 7.30303864368238 1.54468787176535 1.52125043445267
55 16 4 0 7.54303864368238 0.614687871765345 1.52125043445267
56 17 4 0 3.31182916226797 13.3318952952418 8.7962288595736
57 17 5 0 4.27182916226797 13.3318952952418 8.7962288595736
58 17 4 0 4.51182916226797 12.4018952952418 8.7962288595736
59 18 4 0 1.39642150185071 13.5247638476454 7.6148955244571
60 18 5 0 2.35642150185071 13.5247638476454 7.6148955244571
61 18 4 0 2.59642150185071 12.5947638476454 7.6148955244571
62 19 4 0 8.27657093686983 2.66805166768841 7.79104522895068
63 19 5 0 9.23657093686983 2.66805166768841 7.79104522895068
64 19 4 0 9.47657093686983 1.73805166768841 7.79104522895068
65 20 4 0 7.67732549968176 10.5076379158441 7.38999677938409
66 20 5 0 8.63732549968176 10.5076379158441 7.38999677938409
67 20 4 0 8.87732549968176 9.5776379158441 7.38999677938409
68 21 4 0 8.04100350986235 8.90975632978603 3.75146736740135
69 21 5 0 9.00100350986235 8.90975632978603 3.75146736740135
70 21 4 0 9.24100350986235 7.97975632978603 3.75146736740135
71 22 4 0 2.69322125983425 4.11948222824372 12.8042099287268
72 22 5 0 3.65322125983425 4.11948222824372 12.8042099287268
73 22 4 0 3.89322125983425 3.18948222824372 12.8042099287268
74 23 4 0 5.05472419361584 12.0158533069212 1.36722266091965
75 23 5 0 6.01472419361584 12.0158533069212 1.36722266091965
76 23 4 0 6.25472419361584 11.0858533069212 1.36722266091965
77 24 4 0 2.63991713334806 13.2581543425936 13.5942609119229
78 24 5 0 3.59991713334806 13.2581543425936 13.5942609119229
79 24 4 0 3.83991713334806 12.3281543425936 13.5942609119229
80 25 4 0 12.9850484132487 12.7659879209846 11.23291520169
81 25 5 0 13.9450484132487 12.7659879209846 11.23291520169
82 25 4 0 14.1850484132487 11.8359879209846 11.23291520169
83 26 4 0 13.1938803246897 5.73583441361785 8.9010620105546
84 26 5 0 14.1538803246897 5.73583441361785 8.9010620105546
85 26 4 0 14.3938803246897 4.80583441361785 8.9010620105546
86 27 4 0 2.49015176363289 0.709495174642652 1.85015503666364
87 27 5 0 3.45015176363289 0.709495174642652 1.85015503666364
88 27 4 0 3.69015176363289 -0.220504825357348 1.85015503666364
89 28 4 0 10.0632773588598 6.49342551635578 6.77405989961699
90 28 5 0 11.0232773588598 6.49342551635578 6.77405989961699
91 28 4 0 11.2632773588598 5.56342551635578 6.77405989961699
92 29 4 0 11.1475741623156 5.50747040816583 14.657268851297
93 29 5 0 12.1075741623156 5.50747040816583 14.657268851297
94 29 4 0 12.3475741623156 4.57747040816583 14.657268851297
95 30 4 0 10.9109162287507 0.61621430836618 12.0455508911982
96 30 5 0 11.8709162287507 0.61621430836618 12.0455508911982
97 30 4 0 12.1109162287507 -0.313785691633821 12.0455508911982
98 31 4 0 10.8645110197552 5.26548104983754 9.67885596212
99 31 5 0 11.8245110197552 5.26548104983754 9.67885596212
100 31 4 0 12.0645110197552 4.33548104983754 9.67885596212
101 32 4 0 2.85275965972804 2.97528030857444 14.6858081175014
102 32 5 0 3.81275965972804 2.97528030857444 14.6858081175014
103 32 4 0 4.05275965972804 2.04528030857444 14.6858081175014
104 33 4 0 10.332852611756 9.62018892442808 11.6780711745378
105 33 5 0 11.292852611756 9.62018892442808 11.6780711745378
106 33 4 0 11.532852611756 8.69018892442808 11.6780711745378
107 34 4 0 6.90347631971352 12.2827524870541 10.9580468432978
108 34 5 0 7.86347631971352 12.2827524870541 10.9580468432978
109 34 4 0 8.10347631971352 11.3527524870541 10.9580468432978
110 35 4 0 7.55544511877932 13.1555892438069 2.09866578457877
111 35 5 0 8.51544511877932 13.1555892438069 2.09866578457877
112 35 4 0 8.75544511877932 12.2255892438069 2.09866578457877
113 36 4 0 9.16249259884469 10.8030156876799 3.20724819554016
114 36 5 0 10.1224925988447 10.8030156876799 3.20724819554016
115 36 4 0 10.3624925988447 9.87301568767987 3.20724819554016
116 37 4 0 3.42130338001996 9.76111502544023 3.91151895630173
117 37 5 0 4.38130338001996 9.76111502544023 3.91151895630173
118 37 4 0 4.62130338001996 8.83111502544023 3.91151895630173
119 38 4 0 2.00287172265351 3.10963733046316 12.1661267161835
120 38 5 0 2.96287172265351 3.10963733046316 12.1661267161835
121 38 4 0 3.20287172265351 2.17963733046316 12.1661267161835
122 39 4 0 12.0953880906757 15.2698661868367 11.1064506147522
123 39 5 0 13.0553880906757 15.2698661868367 11.1064506147522
124 39 4 0 13.2953880906757 14.3398661868367 11.1064506147522
125 40 4 0 7.58074564553797 9.48627456481569 8.51756562944502
126 40 5 0 8.54074564553797 9.48627456481569 8.51756562944502
127 40 4 0 8.78074564553797 8.55627456481569 8.51756562944502
128 41 4 0 -0.646070482470095 4.99728446634486 11.5629087248817
129 41 5 0 0.313929517529905 4.99728446634486 11.5629087248817
130 41 4 0 0.553929517529905 4.06728446634486 11.5629087248817
131 42 4 0 12.9849492134247 2.58104155812413 11.5810677967966
132 42 5 0 13.9449492134247 2.58104155812413 11.5810677967966
133 42 4 0 14.1849492134247 1.65104155812412 11.5810677967966
134 43 4 0 6.61380065881647 1.27628566971049 10.7950227870606
135 43 5 0 7.57380065881647 1.27628566971049 10.7950227870606
136 43 4 0 7.81380065881647 0.346285669710487 10.7950227870606
137 44 4 0 8.94734370100312 14.4845037049986 1.36607641819865
138 44 5 0 9.90734370100312 14.4845037049986 1.36607641819865
139 44 4 0 10.1473437010031 13.5545037049986 1.36607641819865
140 45 4 0 13.7137222259492 5.96909669152461 11.5495582704898
141 45 5 0 14.6737222259492 5.96909669152461 11.5495582704898
142 45 4 0 14.9137222259492 5.03909669152461 11.5495582704898
143 46 4 0 5.78761902099475 9.49160755070858 9.58160668378696
144 46 5 0 6.74761902099475 9.49160755070858 9.58160668378696
145 46 4 0 6.98761902099475 8.56160755070858 9.58160668378696
146 47 4 0 2.04425092248246 9.95408214204013 3.70761082973331
147 47 5 0 3.00425092248246 9.95408214204013 3.70761082973331
148 47 4 0 3.24425092248246 9.02408214204013 3.70761082973331
149 48 4 0 9.45165961442515 8.51271003292874 11.1941066582222
150 48 5 0 10.4116596144252 8.51271003292874 11.1941066582222
151 48 4 0 10.6516596144252 7.58271003292873 11.1941066582222
152 49 4 0 7.32225587518886 15.0698331957124 4.81060573481955
153 49 5 0 8.28225587518886 15.0698331957124 4.81060573481955
154 49 4 0 8.52225587518886 14.1398331957124 4.81060573481955
155 50 4 0 11.7302870463766 12.7221632101014 10.0845253409352
156 50 5 0 12.6902870463766 12.7221632101014 10.0845253409352
157 50 4 0 12.9302870463766 11.7921632101014 10.0845253409352
158 51 4 0 3.4047566929087 3.67940186447464 5.18163722357713
159 51 5 0 4.3647566929087 3.67940186447464 5.18163722357713
160 51 4 0 4.6047566929087 2.74940186447464 5.18163722357713
161 52 4 0 12.1282693503611 13.2975066305976 8.86843411135487
162 52 5 0 13.0882693503611 13.2975066305976 8.86843411135487
163 52 4 0 13.3282693503611 12.3675066305976 8.86843411135487
164 53 4 0 7.3881588822417 11.1384892467782 10.0832239945885
165 53 5 0 8.3481588822417 11.1384892467782 10.0832239945885
166 53 4 0 8.5881588822417 10.2084892467782 10.0832239945885
167 54 4 0 13.9256600131933 8.83364102145657 1.74336913274601
168 54 5 0 14.8856600131933 8.83364102145657 1.74336913274601
169 54 4 0 15.1256600131933 7.90364102145657 1.74336913274601
170 55 4 0 5.89696367547847 10.5360744199157 9.77793935453519
171 55 5 0 6.85696367547847 10.5360744199157 9.77793935453519
172 55 4 0 7.09696367547847 9.60607441991568 9.77793935453519
173 56 4 0 11.9526162142586 4.84707548091188 10.8880509529263
174 56 5 0 12.9126162142586 4.84707548091188 10.8880509529263
175 56 4 0 13.1526162142586 3.91707548091188 10.8880509529263
176 57 4 0 8.7889063339401 10.4515457134135 6.73473312403075
177 57 5 0 9.7489063339401 10.4515457134135 6.73473312403075
178 57 4 0 9.9889063339401 9.52154571341351 6.73473312403075
179 58 4 0 5.5417653014604 10.7035292793904 7.25061245262623
180 58 5 0 6.5017653014604 10.7035292793904 7.25061245262623
181 58 4 0 6.7417653014604 9.77352927939035 7.25061245262623
182 59 4 0 8.87045726107433 13.1292671691068 0.582304818090051
183 59 5 0 9.83045726107433 13.1292671691068 0.582304818090051
184 59 4 0 10.0704572610743 12.1992671691068 0.582304818090051
185 60 4 0 6.73349000324495 11.5011508708727 3.12044483958744
186 60 5 0 7.69349000324495 11.5011508708727 3.12044483958744
187 60 4 0 7.93349000324495 10.5711508708727 3.12044483958744
188 61 4 0 5.15822422385216 3.78100225859322 9.26216981140897
189 61 5 0 6.11822422385216 3.78100225859322 9.26216981140897
190 61 4 0 6.35822422385216 2.85100225859322 9.26216981140897
191 62 4 0 13.0646660648938 11.9775323876552 7.7482505037915
192 62 5 0 14.0246660648938 11.9775323876552 7.7482505037915
193 62 4 0 14.2646660648938 11.0475323876552 7.7482505037915
194 63 4 0 5.83099822673947 5.87231688358821 14.0823653829284
195 63 5 0 6.79099822673947 5.87231688358821 14.0823653829284
196 63 4 0 7.03099822673947 4.94231688358821 14.0823653829284
197 64 4 0 1.79989374984987 1.13628954085521 14.1556173772551
198 64 5 0 2.75989374984987 1.13628954085521 14.1556173772551
199 64 4 0 2.99989374984987 0.206289540855214 14.1556173772551
200 65 4 0 8.09675718119368 13.7102065332606 11.9015146326274
201 65 5 0 9.05675718119368 13.7102065332606 11.9015146326274
202 65 4 0 9.29675718119368 12.7802065332606 11.9015146326274
203 66 4 0 0.461862896773964 13.6571063664183 13.4142597159371
204 66 5 0 1.42186289677396 13.6571063664183 13.4142597159371
205 66 4 0 1.66186289677396 12.7271063664183 13.4142597159371
206 67 4 0 8.06171526943333 3.45938039868139 3.56021889019758
207 67 5 0 9.02171526943333 3.45938039868139 3.56021889019758
208 67 4 0 9.26171526943333 2.52938039868139 3.56021889019758
209 68 4 0 12.2886003569886 9.55885901040398 12.5650647596922
210 68 5 0 13.2486003569886 9.55885901040398 12.5650647596922
211 68 4 0 13.4886003569886 8.62885901040398 12.5650647596922
212 69 4 0 9.34212744279765 9.67311434255913 8.85751222958788
213 69 5 0 10.3021274427976 9.67311434255913 8.85751222958788
214 69 4 0 10.5421274427976 8.74311434255913 8.85751222958788
215 70 4 0 8.20814850085415 13.0437777498178 13.2376602909062
216 70 5 0 9.16814850085415 13.0437777498178 13.2376602909062
217 70 4 0 9.40814850085415 12.1137777498178 13.2376602909062
218 71 4 0 1.47774830387905 15.0220938147418 12.8211632324383
219 71 5 0 2.43774830387905 15.0220938147418 12.8211632324383
220 71 4 0 2.67774830387905 14.0920938147418 12.8211632324383
221 72 4 0 6.38581449209712 8.50447762100026 6.94929719902575
222 72 5 0 7.34581449209712 8.50447762100026 6.94929719902575
223 72 4 0 7.58581449209712 7.57447762100026 6.94929719902575
224 73 4 0 10.6913991963677 2.99237091135234 14.7991968307178
225 73 5 0 11.6513991963677 2.99237091135234 14.7991968307178
226 73 4 0 11.8913991963677 2.06237091135234 14.7991968307178
227 74 4 0 4.65148769712076 15.1749345291778 6.4440338301938
228 74 5 0 5.61148769712076 15.1749345291778 6.4440338301938
229 74 4 0 5.85148769712076 14.2449345291778 6.4440338301938
230 75 4 0 10.4584495564643 4.64196869678795 14.2905069573317
231 75 5 0 11.4184495564643 4.64196869678795 14.2905069573317
232 75 4 0 11.6584495564643 3.71196869678795 14.2905069573317
233 76 4 0 2.15865244899876 5.34400284098461 3.27201368752867
234 76 5 0 3.11865244899876 5.34400284098461 3.27201368752867
235 76 4 0 3.35865244899876 4.41400284098461 3.27201368752867
236 77 4 0 -0.00277020226232705 5.06707604084164 14.3379714677576
237 77 5 0 0.957229797737673 5.06707604084164 14.3379714677576
238 77 4 0 1.19722979773767 4.13707604084164 14.3379714677576
239 78 4 0 3.64865727882832 1.75622618448921 1.39453250449151
240 78 5 0 4.60865727882832 1.75622618448921 1.39453250449151
241 78 4 0 4.84865727882832 0.826226184489205 1.39453250449151
242 79 4 0 -0.458519116071984 3.00222709350288 10.5946135532577
243 79 5 0 0.501480883928016 3.00222709350288 10.5946135532577
244 79 4 0 0.741480883928016 2.07222709350288 10.5946135532577
245 80 4 0 0.112191113149747 4.83887457446195 0.136544883716851
246 80 5 0 1.07219111314975 4.83887457446195 0.136544883716851
247 80 4 0 1.31219111314975 3.90887457446195 0.136544883716851
248 81 4 0 6.07750522831455 9.84413789509796 0.668589763808995
249 81 5 0 7.03750522831455 9.84413789509796 0.668589763808995
250 81 4 0 7.27750522831455 8.91413789509796 0.668589763808995
251 82 4 0 7.37818008332513 11.7410793706682 13.1738251552451
252 82 5 0 8.33818008332513 11.7410793706682 13.1738251552451
253 82 4 0 8.57818008332513 10.8110793706682 13.1738251552451
254 83 4 0 10.7835964886192 2.27328613208607 6.37740600504912
255 83 5 0 11.7435964886192 2.27328613208607 6.37740600504912
256 83 4 0 11.9835964886192 1.34328613208607 6.37740600504912
257 84 4 0 1.87118548245169 10.6573906638101 4.53953023301437
258 84 5 0 2.83118548245169 10.6573906638101 4.53953023301437
259 84 4 0 3.07118548245169 9.72739066381008 4.53953023301437
260 85 4 0 13.814647091059 1.94374669500627 4.8743924649898
261 85 5 0 14.774647091059 1.94374669500627 4.8743924649898
262 85 4 0 15.014647091059 1.01374669500627 4.8743924649898
263 86 4 0 -0.655592017136514 1.02591348270886 14.6340319979936
264 86 5 0 0.304407982863486 1.02591348270886 14.6340319979936
265 86 4 0 0.544407982863486 0.0959134827088564 14.6340319979936
266 87 4 0 9.94308651468716 2.67479425919242 6.54063065419905
267 87 5 0 10.9030865146872 2.67479425919242 6.54063065419905
268 87 4 0 11.1430865146872 1.74479425919242 6.54063065419905
269 88 4 0 1.69363555658609 2.15277436928824 7.39356282167137
270 88 5 0 2.65363555658609 2.15277436928824 7.39356282167137
271 88 4 0 2.89363555658609 1.22277436928824 7.39356282167137
272 89 4 0 4.72480029959232 11.6303145738225 4.8335774440784
273 89 5 0 5.68480029959232 11.6303145738225 4.8335774440784
274 89 4 0 5.92480029959232 10.7003145738225 4.8335774440784
275 90 4 0 9.1217398694437 0.355216546859592 4.3826078355778
276 90 5 0 10.0817398694437 0.355216546859592 4.3826078355778
277 90 4 0 10.3217398694437 -0.574783453140408 4.3826078355778
278 91 4 0 6.56581329574809 8.66448727943003 11.5338256198447
279 91 5 0 7.52581329574808 8.66448727943003 11.5338256198447
280 91 4 0 7.76581329574809 7.73448727943003 11.5338256198447
281 92 4 0 9.34488203653134 0.887137479558587 12.9215022479184
282 92 5 0 10.3048820365313 0.887137479558587 12.9215022479184
283 92 4 0 10.5448820365313 -0.042862520441413 12.9215022479184
284 93 4 0 6.85321200566366 11.6538407250214 9.98547902796417
285 93 5 0 7.81321200566366 11.6538407250214 9.98547902796417
286 93 4 0 8.05321200566366 10.7238407250214 9.98547902796417
287 94 4 0 5.27111253395677 10.6353001859412 10.4742159275338
288 94 5 0 6.23111253395677 10.6353001859412 10.4742159275338
289 94 4 0 6.47111253395677 9.70530018594116 10.4742159275338
290 95 4 0 13.7781622835621 13.6192624717392 10.1598721963819
291 95 5 0 14.7381622835621 13.6192624717392 10.1598721963819
292 95 4 0 14.9781622835621 12.6892624717392 10.1598721963819
293 96 4 0 8.41542751455679 7.33326930710114 3.46064345911145
294 96 5 0 9.3754275145568 7.33326930710114 3.46064345911145
295 96 4 0 9.6154275145568 6.40326930710115 3.46064345911145
296 97 4 0 -0.631385943414643 4.40992030006833 2.71380451857112
297 97 5 0 0.328614056585357 4.40992030006833 2.71380451857112
298 97 4 0 0.568614056585357 3.47992030006833 2.71380451857112
299 98 4 0 7.64756199016236 3.64797385217622 7.5923402456101
300 98 5 0 8.60756199016236 3.64797385217622 7.5923402456101
301 98 4 0 8.84756199016236 2.71797385217622 7.5923402456101
302 99 4 0 10.7702589214034 1.28558336565271 4.34624566580169
303 99 5 0 11.7302589214034 1.28558336565271 4.34624566580169
304 99 4 0 11.9702589214034 0.35558336565271 4.34624566580169
305 100 4 0 11.3620068614557 2.60967880179174 3.17320539266802
306 100 5 0 12.3220068614557 2.60967880179174 3.17320539266802
307 100 4 0 12.5620068614557 1.67967880179174 3.17320539266802
308 101 4 0 -0.196019474677742 3.39197748847306 6.0604124609381
309 101 5 0 0.763980525322258 3.39197748847306 6.0604124609381
310 101 4 0 1.00398052532226 2.46197748847306 6.0604124609381
311 102 4 0 11.8406522010639 5.34270959365182 12.3920853424352
312 102 5 0 12.8006522010639 5.34270959365182 12.3920853424352
313 102 4 0 13.0406522010639 4.41270959365182 12.3920853424352
314 103 4 0 8.84101915449835 6.88670601969585 1.47633814369328
315 103 5 0 9.80101915449835 6.88670601969585 1.47633814369328
316 103 4 0 10.0410191544984 5.95670601969585 1.47633814369328
317 104 4 0 7.38943879536353 8.94135686609894 10.1281888328958
318 104 5 0 8.34943879536353 8.94135686609894 10.1281888328958
319 104 4 0 8.58943879536353 8.01135686609894 10.1281888328958
320 105 4 0 -0.706765292705968 12.8008449943177 1.75484364037402
321 105 5 0 0.253234707294032 12.8008449943177 1.75484364037402
322 105 4 0 0.493234707294032 11.8708449943177 1.75484364037402
323 106 4 0 5.64134388623759 14.8707374270912 0.650083087384701
324 106 5 0 6.60134388623759 14.8707374270912 0.650083087384701
325 106 4 0 6.84134388623759 13.9407374270912 0.650083087384701
326 107 4 0 9.55334765880369 10.1933833925892 9.25674611586146
327 107 5 0 10.5133476588037 10.1933833925892 9.25674611586146
328 107 4 0 10.7533476588037 9.26338339258917 9.25674611586146
329 108 4 0 2.14070839036256 11.1905408200715 4.41589477937669
330 108 5 0 3.10070839036256 11.1905408200715 4.41589477937669
331 108 4 0 3.34070839036256 10.2605408200715 4.41589477937669
332 109 4 0 6.32212607466616 14.387521613799 6.16540887742303
333 109 5 0 7.28212607466616 14.387521613799 6.16540887742303
334 109 4 0 7.52212607466616 13.457521613799 6.16540887742303
335 110 4 0 14.1912181866076 10.6952400241885 3.91559893498197
336 110 5 0 15.1512181866076 10.6952400241885 3.91559893498197
337 110 4 0 15.3912181866076 9.76524002418853 3.91559893498197
338 111 4 0 13.1970933910646 8.49928688648157 11.8324438319542
339 111 5 0 14.1570933910646 8.49928688648157 11.8324438319542
340 111 4 0 14.3970933910646 7.56928688648157 11.8324438319542
341 112 4 0 13.4604356093053 12.0384877493512 1.50705604115501
342 112 5 0 14.4204356093053 12.0384877493512 1.50705604115501
343 112 4 0 14.6604356093053 11.1084877493512 1.50705604115501
344 113 4 0 13.7231633886416 10.2656797626428 14.8341837816406
345 113 5 0 14.6831633886416 10.2656797626428 14.8341837816406
346 113 4 0 14.9231633886416 9.33567976264283 14.8341837816406
347 114 4 0 0.0528061848320067 8.7912818444334 5.0729419325944
348 114 5 0 1.01280618483201 8.7912818444334 5.0729419325944
349 114 4 0 1.25280618483201 7.8612818444334 5.0729419325944
350 115 4 0 12.0978329626098 11.9943243327457 1.32001844700426
351 115 5 0 13.0578329626098 11.9943243327457 1.32001844700426
352 115 4 0 13.2978329626098 11.0643243327457 1.32001844700426
353 116 4 0 10.5744212963339 0.673172204233706 2.31840191292576
354 116 5 0 11.5344212963339 0.673172204233706 2.31840191292576
355 116 4 0 11.7744212963339 -0.256827795766294 2.31840191292576
356 117 4 0 6.5008702750504 13.1614572081622 11.2672239518724
357 117 5 0 7.4608702750504 13.1614572081622 11.2672239518724
358 117 4 0 7.7008702750504 12.2314572081622 11.2672239518724
359 118 4 0 -0.0587238169088959 9.64769294526428 12.8481017262675
360 118 5 0 0.901276183091104 9.64769294526428 12.8481017262675
361 118 4 0 1.1412761830911 8.71769294526428 12.8481017262675
362 119 4 0 2.01110337322578 1.69030844274908 14.7814131632913
363 119 5 0 2.97110337322578 1.69030844274908 14.7814131632913
364 119 4 0 3.21110337322578 0.760308442749083 14.7814131632913
365 120 4 0 3.75447411599569 2.18640260322951 5.99400079110637
366 120 5 0 4.71447411599569 2.18640260322951 5.99400079110637
367 120 4 0 4.95447411599569 1.25640260322951 5.99400079110637
368 121 4 0 10.2589641725365 5.14733171597123 4.65413373196498
369 121 5 0 11.2189641725365 5.14733171597123 4.65413373196498
370 121 4 0 11.4589641725365 4.21733171597123 4.65413373196498
371 122 4 0 14.1504067699146 10.5309632610902 2.54900459898636
372 122 5 0 15.1104067699146 10.5309632610902 2.54900459898636
373 122 4 0 15.3504067699146 9.60096326109022 2.54900459898636
374 123 4 0 10.6354694107734 5.26643170084804 9.4086858315859
375 123 5 0 11.5954694107734 5.26643170084804 9.4086858315859
376 123 4 0 11.8354694107734 4.33643170084804 9.4086858315859
377 124 4 0 7.23323220896535 7.41729982121848 10.129464736674
378 124 5 0 8.19323220896535 7.41729982121848 10.129464736674
379 124 4 0 8.43323220896535 6.48729982121848 10.129464736674
380 125 4 0 5.79616007904522 12.5714310088102 5.5019281769637
381 125 5 0 6.75616007904522 12.5714310088102 5.5019281769637
382 125 4 0 6.99616007904522 11.6414310088102 5.5019281769637
383 126 4 0 10.4320409665536 9.77040955022909 8.75142508652061
384 126 5 0 11.3920409665536 9.77040955022909 8.75142508652061
385 126 4 0 11.6320409665536 8.84040955022909 8.75142508652061
386 127 4 0 9.09906127533875 14.995806814814 3.18212783429772
387 127 5 0 10.0590612753388 14.995806814814 3.18212783429772
388 127 4 0 10.2990612753388 14.065806814814 3.18212783429772
389 128 4 0 13.5268324047513 1.84834423632361 5.37825195933692
390 128 5 0 14.4868324047513 1.84834423632361 5.37825195933692
391 128 4 0 14.7268324047513 0.91834423632361 5.37825195933692
392 129 4 0 0.0319393705297262 9.19793240184896 7.4689067224972
393 129 5 0 0.991939370529726 9.19793240184896 7.4689067224972
394 129 4 0 1.23193937052973 8.26793240184896 7.4689067224972
395 130 4 0 5.37397809952498 8.46438786172308 3.8324488280341
396 130 5 0 6.33397809952498 8.46438786172308 3.8324488280341
397 130 4 0 6.57397809952498 7.53438786172308 3.8324488280341
398 131 4 0 -0.691803490770981 10.5772217448708 5.64607766456902
399 131 5 0 0.268196509229019 10.5772217448708 5.64607766456902
400 131 4 0 0.508196509229019 9.64722174487077 5.64607766456902
401 132 4 0 10.3533567376155 3.74152053654194 14.8083940381184
402 132 5 0 11.3133567376155 3.74152053654194 14.8083940381184
403 132 4 0 11.5533567376155 2.81152053654194 14.8083940381184
404 133 4 0 13.1149337771069 10.3598789327685 7.88391195936128
405 133 5 0 14.0749337771069 10.3598789327685 7.88391195936128
406 133 4 0 14.3149337771069 9.42987893276848 7.88391195936128
407 134 4 0 8.89790045024827 13.6806929301843 5.08594805491157
408 134 5 0 9.85790045024827 13.6806929301843 5.08594805491157
409 134 4 0 10.0979004502483 12.7506929301843 5.08594805491157
410 135 4 0 9.14282812664285 12.531990005346 7.0774921705015
411 135 5 0 10.1028281266429 12.531990005346 7.0774921705015
412 135 4 0 10.3428281266429 11.601990005346 7.0774921705015
413 136 4 0 8.52487905926071 0.653170122941956 3.41418031021021
414 136 5 0 9.48487905926071 0.653170122941956 3.41418031021021
415 136 4 0 9.72487905926071 -0.276829877058044 3.41418031021021
416 137 4 0 1.47291261630133 10.7234954127949 11.7180178128183
417 137 5 0 2.43291261630133 10.7234954127949 11.7180178128183
418 137 4 0 2.67291261630133 9.79349541279487 11.7180178128183
419 138 4 0 6.30313203248195 3.99072599056177 10.2316383761354
420 138 5 0 7.26313203248195 3.99072599056177 10.2316383761354
421 138 4 0 7.50313203248195 3.06072599056177 10.2316383761354
422 139 4 0 8.22354153424501 8.93282310728915 4.50459816260263
423 139 5 0 9.18354153424501 8.93282310728915 4.50459816260263
424 139 4 0 9.42354153424501 8.00282310728915 4.50459816260263
425 140 4 0 -0.582057727295905 9.50503019424155 12.9582273645792
426 140 5 0 0.377942272704095 9.50503019424155 12.9582273645792
427 140 4 0 0.617942272704095 8.57503019424155 12.9582273645792
428 141 4 0 2.13248034051619 12.5675982159469 6.90084932022728
429 141 5 0 3.09248034051619 12.5675982159469 6.90084932022728
430 141 4 0 3.3324803405162 11.6375982159469 6.90084932022728
431 142 4 0 0.389823879087344 8.49543342524208 8.58832187368535
432 142 5 0 1.34982387908734 8.49543342524208 8.58832187368535
433 142 4 0 1.58982387908734 7.56543342524208 8.58832187368535
434 143 4 0 6.17803131739609 12.3211396128777 9.57411565817893
435 143 5 0 7.13803131739609 12.3211396128777 9.57411565817893
436 143 4 0 7.37803131739609 11.3911396128777 9.57411565817893
437 144 4 0 6.68061366464943 0.580495495060459 3.78244092338718
438 144 5 0 7.64061366464943 0.580495495060459 3.78244092338718
439 144 4 0 7.88061366464943 -0.349504504939541 3.78244092338718
440 145 4 0 5.20964794719592 8.54877946124412 9.81578476144932
441 145 5 0 6.16964794719592 8.54877946124412 9.81578476144932
442 145 4 0 6.40964794719592 7.61877946124412 9.81578476144932
443 146 4 0 7.37778700000607 5.26413212920539 13.929952980252
444 146 5 0 8.33778700000606 5.26413212920539 13.929952980252
445 146 4 0 8.57778700000607 4.33413212920539 13.929952980252
446 147 4 0 2.17776472141966 2.27005088160746 7.08969187340699
447 147 5 0 3.13776472141966 2.27005088160746 7.08969187340699
448 147 4 0 3.37776472141966 1.34005088160746 7.08969187340699
449 148 4 0 6.05008725469932 7.91860182577744 8.82942225784063
450 148 5 0 7.01008725469932 7.91860182577744 8.82942225784063
451 148 4 0 7.25008725469932 6.98860182577744 8.82942225784063
452 149 4 0 13.2024980946165 10.0165035928972 7.95798414736055
453 149 5 0 14.1624980946165 10.0165035928972 7.95798414736055
454 149 4 0 14.4024980946165 9.08650359289721 7.95798414736055
455 150 4 0 9.30668937086128 14.5744651595037 8.69184432900511
456 150 5 0 10.2666893708613 14.5744651595037 8.69184432900511
457 150 4 0 10.5066893708613 13.6444651595037 8.69184432900511
458 151 4 0 9.81228375152685 15.1493643635791 7.0524699264206
459 151 5 0 10.7722837515268 15.1493643635791 7.0524699264206
460 151 4 0 11.0122837515268 14.2193643635791 7.0524699264206
461 152 4 0 12.3073960973136 12.7180748145934 9.59092712611891
462 152 5 0 13.2673960973136 12.7180748145934 9.59092712611891
463 152 4 0 13.5073960973136 11.7880748145934 9.59092712611891
464 153 4 0 -0.389961633626372 4.07145159360021 14.8556038259994
465 153 5 0 0.570038366373628 4.07145159360021 14.8556038259994
466 153 4 0 0.810038366373628 3.14145159360021 14.8556038259994
467 154 4 0 10.7559761688765 14.1617134881113 9.06141383922659
468 154 5 0 11.7159761688765 14.1617134881113 9.06141383922659
469 154 4 0 11.9559761688765 13.2317134881113 9.06141383922659
470 155 4 0 11.794382628724 12.1879272690881 5.14158072997816
471 155 5 0 12.754382628724 12.1879272690881 5.14158072997816
472 155 4 0 12.994382628724 11.2579272690881 5.14158072997816
473 156 4 0 12.4092500405107 12.6962134211231 3.33122383221053
474 156 5 0 13.3692500405107 12.6962134211231 3.33122383221053
475 156 4 0 13.6092500405107 11.7662134211231 3.33122383221053