LAMMPS (29 Sep 2021 - Update 1)
# Test LAMMPS input file for single DeFDe

# Initialize simulation

clear

units real
atom_style full
boundary p p p
dielectric 1
special_bonds dreiding

bond_style harmonic
angle_style harmonic
dihedral_style harmonic
improper_style umbrella
pair_style hybrid/overlay hbond/dreiding/lj 4 9.0 11.0 90 lj/cut 8.50000

# Read data file
read_data frag5.dat
Reading data file ...
  triclinic box = (0.0000000 0.0000000 0.0000000) to (15.000000 15.000000 15.000000) with tilt (0.0000000 0.0000000 0.0000000)
  2 by 4 by 4 MPI processor grid
  reading atoms ...
  1510 atoms
  scanning bonds ...
  3 = max bonds/atom
  scanning angles ...
  6 = max angles/atom
  scanning dihedrals ...
  12 = max dihedrals/atom
  scanning impropers ...
  1 = max impropers/atom
  reading bonds ...
  1009 bonds
  reading angles ...
  515 angles
  reading dihedrals ...
  12 dihedrals
  reading impropers ...
  1 impropers
Finding 1-2 1-3 1-4 neighbors ...
  special bond factors lj:    0        0        1       
  special bond factors coul:  0        0        1       
     4 = max # of 1-2 neighbors
     6 = max # of 1-3 neighbors
     9 = max # of special neighbors
  special bonds CPU = 0.002 seconds
  read_data CPU = 0.017 seconds

# Dreiding potential information

bond_coeff 1 350 1.375
bond_coeff 2 350 1.09
bond_coeff 3 350 0.935
bond_coeff 4 350 0.98

angle_coeff 1 50 120
angle_coeff 2 50 109.471
angle_coeff 3 50 104.51

dihedral_coeff 1 0.0833333333333333 -1 6

improper_coeff 1 40 0

pair_coeff 1 1 lj/cut 0.0774 3.6621
pair_coeff 1 2 lj/cut 0.0857947550844456 3.77835472527395
pair_coeff 1 3 lj/cut 0.0342998542270955 3.42058613398347
pair_coeff 1 4 lj/cut 0.00278208554864871 3.41951536039831
pair_coeff 1 5 lj/cut 0.0860649754545948 3.53100349192691
pair_coeff 2 2 lj/cut 0.0951 3.8983
pair_coeff 2 3 lj/cut 0.0380199947396104 3.52917391183829
pair_coeff 2 4 lj/cut 0.00308382878902186 3.52806914614779
pair_coeff 2 5 lj/cut 0.0953995283007206 3.64309650983885
pair_coeff 3 3 lj/cut 0.0152 3.195
pair_coeff 3 4 lj/cut 0.0012328828005938 3.19399984345648
pair_coeff 3 5 lj/cut 0.0381397430510485 3.29813538230316
pair_coeff 4 4 lj/cut 1e-04 3.193
pair_coeff 4 5 lj/cut 0.0030935416596516 3.29710294046152
pair_coeff 5 5 lj/cut 0.0957 3.4046
pair_coeff 1 1 hbond/dreiding/lj 4 j 9.50 2.75 4 9.0 11.0 90
pair_coeff 1 5 hbond/dreiding/lj 4 i 9.50 2.75 4 9.0 11.0 90
pair_coeff 1 5 hbond/dreiding/lj 4 j 9.50 2.75 4 9.0 11.0 90
pair_coeff 5 5 hbond/dreiding/lj 4 j 9.50 2.75 4 9.0 11.0 90

neighbor 2 bin
neigh_modify every 2 one 10000

# Gemoetric relaxation
fix 1 all box/relax iso 1.0 vmax 0.001
minimize 1.0e-4 1.0e-6 10000 10000
WARNING: Using 'neigh_modify every 1 delay 0 check yes' setting during minimization (../min.cpp:188)
Neighbor list info ...
  update every 1 steps, delay 0 steps, check yes
  max neighbors/atom: 10000, page size: 100000
  master list distance cutoff = 13
  ghost atom cutoff = 13
  binsize = 6.5, bins = 3 3 3
  3 neighbor lists, perpetual/occasional/extra = 3 0 0
  (1) pair hbond/dreiding/lj, perpetual, skip from (3)
      attributes: full, newton on
      pair build: skip
      stencil: none
      bin: none
  (2) pair lj/cut, perpetual, half/full from (3)
      attributes: half, newton on
      pair build: halffull/newton
      stencil: none
      bin: none
  (3) neighbor class addition, perpetual
      attributes: full, newton on
      pair build: full/bin
      stencil: full/bin/3d
      bin: standard
Per MPI rank memory allocation (min/avg/max) = 15.22 | 15.55 | 15.96 Mbytes
Step Temp E_pair E_mol TotEng Press Volume 
       0            0 1.9038509e+16    204.61236 1.9038509e+16 1.5471886e+18         3375 
    4849            0   -1078.8283     22.19313   -1056.6352    75.299174    37599.264 
Loop time of 4.24136 on 32 procs for 4849 steps with 1510 atoms

100.0% CPU use with 32 MPI tasks x no OpenMP threads

Minimization stats:
  Stopping criterion = energy tolerance
  Energy initial, next-to-last, final = 
    1.90385088364899e+16  -1056.04157466628  -1056.13602677239
  Force two-norm initial, final = 3.1473233e+18 89.804565
  Force max component initial, final = 1.8651332e+18 54.725778
  Final line search alpha, max atom move = 1.1094932e-05 0.00060717879
  Iterations, force evaluations = 4849 4851

MPI task timing breakdown:
Section |  min time  |  avg time  |  max time  |%varavg| %total
---------------------------------------------------------------
Pair    | 1.3159     | 2.4293     | 3.4693     |  37.6 | 57.28
Bond    | 0.0053774  | 0.010033   | 0.020696   |   2.8 |  0.24
Neigh   | 0.091222   | 0.091503   | 0.091775   |   0.0 |  2.16
Comm    | 0.35099    | 1.3924     | 2.5101     |  49.8 | 32.83
Output  | 0          | 0          | 0          |   0.0 |  0.00
Modify  | 0          | 0          | 0          |   0.0 |  0.00
Other   |            | 0.3181     |            |       |  7.50

Nlocal:        47.1875 ave          69 max          26 min
Histogram: 3 1 2 8 3 4 5 1 3 2
Nghost:        1938.19 ave        1974 max        1878 min
Histogram: 1 0 3 1 4 4 5 6 6 2
Neighs:        4992.81 ave        7801 max        2699 min
Histogram: 2 3 8 3 1 6 3 1 3 2

Total # of neighbors = 159770
Ave neighs/atom = 105.80795
Ave special neighs/atom = 2.0185430
Neighbor list builds = 90
Dangerous builds = 0

# MD simulation
velocity all create 300.0 12345 rot yes dist gaussian
timestep 1.0
fix 2 all nvt temp 300.0 300.0 1

# Compute interaction energy
group WAT molecule <> 2 501
1500 atoms in group WAT
group MOL molecule 1
10 atoms in group MOL

compute w WAT group/group MOL pair yes
fix 3 all ave/time 10 5 100 c_w file outa

# Outputs
thermo 100 # Output thermodynamic data every nth step
#dump mf1 all xyz 10000 mol_*.xyz

# Run
run 1000000
Neighbor list info ...
  update every 2 steps, delay 10 steps, check yes
  max neighbors/atom: 10000, page size: 100000
  master list distance cutoff = 13
  ghost atom cutoff = 13
  binsize = 6.5, bins = 6 6 6
  4 neighbor lists, perpetual/occasional/extra = 3 1 0
  (1) pair hbond/dreiding/lj, perpetual, skip from (4)
      attributes: full, newton on
      pair build: skip
      stencil: none
      bin: none
  (2) pair lj/cut, perpetual, half/full from (4)
      attributes: half, newton on
      pair build: halffull/newton
      stencil: none
      bin: none
  (3) compute group/group, occasional, copy from (2)
      attributes: half, newton on
      pair build: copy
      stencil: none
      bin: none
  (4) neighbor class addition, perpetual
      attributes: full, newton on
      pair build: full/bin
      stencil: full/bin/3d
      bin: standard
Per MPI rank memory allocation (min/avg/max) = 14.06 | 14.12 | 14.73 Mbytes
Step Temp E_pair E_mol TotEng Press Volume 
    4849          300   -1078.8283     22.19313    292.77756    1715.8826    37599.264 
    4900    303.99496   -1065.6138    95.931813     397.7002    857.97257    37599.264 
    5000      305.504   -1069.4588    220.95431    525.66548   -943.41373    37599.264 
    5100     303.1734    -1109.765    188.74204    442.66385   -584.49942    37599.264 
    5200    292.51004   -1111.5141    177.01983    381.22823   -282.66854    37599.264 
    5300    299.23456     -1074.76     178.0839    449.29362    -164.0599    37599.264 
    5400     298.7862   -1060.2845     174.6798    458.34831   -411.51005    37599.264 
    5500    306.05394   -1034.6031    180.85494    522.89548    64.881504    37599.264 
    5600    306.11864   -1101.9336    180.81931     455.8203    185.23359    37599.264 
    5700    302.81196   -1103.4905    181.84502    440.41556    430.45363    37599.264 
    5800    309.96069   -1095.9831    187.14844    485.38167    229.72842    37599.264 
    5900    302.23635   -1134.9865    181.20767    405.69306    458.17304    37599.264 
    6000    299.80249   -1141.2417     185.5465    392.82913     638.1953    37599.264 
    6100    303.87316   -1161.7245    200.09892    405.20874    389.72551    37599.264 
    6200    301.99346   -1164.6802    194.73625    388.43542    340.77153    37599.264 
    6300    308.84542    -1154.869    175.67804    410.00877    223.51695    37599.264 
    6400    296.63092   -1155.5034    195.33707    374.09209   -146.81021    37599.264 
    6500    293.03613   -1150.6492    216.96097    384.40071     479.8747    37599.264 
    6600    308.44176   -1143.4712    193.46385    437.37679     726.8597    37599.264 
    6700    292.93824   -1113.2918    184.38944    388.74627    536.61968    37599.264 
    6800    298.78231   -1149.0351    202.36879    397.26916    684.00277    37599.264 
    6900    303.02721   -1151.1641    201.99471     413.8598    576.65796    37599.264 
    7000    303.77807   -1140.3801    198.60384    424.63033    591.44386    37599.264 
    7100    293.41061   -1164.1924    197.97379    353.55471    264.79207    37599.264 
    7200    308.87711   -1116.1915     215.1406    488.29143    243.32964    37599.264 
    7300    300.69024   -1111.7196    210.29035    451.08823    9.4137427    37599.264 
    7400    294.04006   -1110.9627     221.4195    433.06147    41.499175    37599.264 
    7500    304.34996     -1126.93    220.79776    462.84678   -207.11044    37599.264 
    7600    288.90781   -1120.2431    222.43266    401.70911    160.50906    37599.264 
    7700    296.23542   -1122.6992    227.25818    437.03846    682.25295    37599.264 
    7800    296.46314   -1125.0765    223.72338    432.15067   -4.9068645    37599.264 
    7900    297.09281   -1120.6179    219.24327    434.96141   -8.9378643    37599.264 
    8000    299.54867   -1119.4168     221.3313    449.29714   -27.308451    37599.264 
    8100    304.80397   -1132.7518    214.88199    453.15131    686.36862    37599.264 
    8200    290.79271   -1173.0472    219.91225    354.86299    468.25696    37599.264 
    8300    302.56758    -1112.543    209.98651    458.40524    775.18059    37599.264 
    8400    303.85268   -1134.6151    210.44595    442.57306    593.34319    37599.264 
    8500    304.53721   -1137.0364    229.14103    461.92592     904.4314    37599.264 
    8600    304.22371   -1133.1708    223.46604    458.70639    329.56871    37599.264 
    8700    294.48829    -1129.678    229.91047    424.85331    192.40109    37599.264 
    8800    297.38476   -1110.7008    236.64351    463.59192    152.03727    37599.264 
    8900    292.41994   -1106.1237    222.16515    431.35875    551.82383    37599.264 
    9000     294.0377   -1097.1528    226.76763    452.20885    377.34451    37599.264 
    9100    293.75157   -1127.5269    234.38653    428.16662    592.18128    37599.264 
    9200    294.03189    -1173.693    240.01482    388.88968    400.87572    37599.264 
    9300    297.46663   -1213.3241    244.16328    368.85666    229.69385    37599.264 
    9400    310.47668   -1177.6816    231.64913     450.5048    138.41124    37599.264 
    9500    294.97566   -1193.6392    249.01319    382.18698    523.38968    37599.264 
    9600    299.89136   -1203.2149    231.42894    377.13811    272.76358    37599.264 
    9700     289.9937   -1175.2672    244.12511    373.26184    399.59657    37599.264 
    9800    306.02469   -1150.4176    240.25084    466.34526    872.94195    37599.264 
    9900      307.894   -1138.8494    239.67216    485.74303    944.21141    37599.264 
   10000    299.15456   -1152.0429     247.4578     441.0248    756.12988    37599.264 
   10100     299.2749   -1158.9332    249.91157    437.12953    952.70681    37599.264 
   10200    291.63036   -1153.8576    246.27701    404.18514    687.19868    37599.264 
   10300     303.9343   -1125.9251    250.99125    492.17552    860.13968    37599.264 
   10400    285.55812     -1167.29    231.61386    348.77635    487.92893    37599.264 
   10500    318.93573   -1177.3293    258.56186    515.81897    504.69644    37599.264 
   10600    296.67733     -1172.57    229.78223     391.6794    -35.70463    37599.264 
   10700    302.71322   -1147.3024    264.18617    478.50066    448.42767    37599.264 
   10800     297.4771   -1184.6193    232.84428    386.28952    110.38811    37599.264 
   10900    305.85512   -1135.0634    240.88479    481.57067    104.66662    37599.264 
   11000    306.14688   -1155.6156    243.23028    464.67633    184.47149    37599.264 
   11100    294.62794   -1193.4245     256.9412    388.76563    140.59006    37599.264 
   11200    299.43581   -1168.6718    249.57787    427.78106    463.84736    37599.264 
   11300    304.46813   -1117.3337    251.14352    503.32033    435.15843    37599.264 
   11400    299.11066   -1164.8389    258.05055    438.62411   -72.270985    37599.264 
   11500     292.1065   -1126.2691    260.42894    448.06724    306.29553    37599.264 
   11600    296.58777   -1120.0945    241.77891    455.74878    -104.2066    37599.264 
   11700      309.425   -1119.9643    267.79465    539.63713     399.2221    37599.264 
   11800    294.60816   -1143.8778     255.2829    436.56509    343.61556    37599.264 
   11900    294.16257   -1156.3315    264.24051    431.06468    451.79554    37599.264 
   12000    298.51804   -1139.3459    266.68858    470.08945    650.89255    37599.264 
   12100    299.55864   -1177.4133    263.21158    433.22575    296.16429    37599.264 
   12200    292.87362   -1124.8858    264.18282    456.65499    457.79739    37599.264 
   12300    297.81979   -1165.1172     276.1647    450.65352   -33.199802    37599.264 
   12400    298.01924   -1165.8142    266.70133    441.39027    42.803447    37599.264 
   12500    305.72013   -1177.0285     259.6977    457.81129   -228.89416    37599.264 
   12600    310.48754   -1162.3434    258.26579    492.50845    115.50514    37599.264 
   12700    300.41061   -1147.3999    267.52843    471.38816    38.464165    37599.264 
   12800    290.70816   -1144.4483    272.30657    435.47584   -52.146662    37599.264 
   12900    304.00759   -1154.7123    266.28965    479.01636    496.84817    37599.264 
   13000    306.09319   -1155.2936    271.33854    492.86512    586.10553    37599.264 
   13100    291.47086   -1143.6729    273.52303    440.89847    723.32257    37599.264 
   13200    297.22068   -1180.0086    269.06655    425.96918    893.38106    37599.264 
   13300    296.56957   -1194.7863    276.06394    415.26018    684.76313    37599.264 
   13400    301.82729   -1194.6183    270.83382    433.84742    578.72062    37599.264 
   13500    303.89915   -1154.9217    276.18766    488.21723    272.92656    37599.264 
   13600    295.24584   -1178.5313    264.84061    414.33761    281.83914    37599.264 
   13700    292.04382    -1191.926    285.37915     407.0787    338.30143    37599.264 
   13800    300.43854   -1167.5097    278.95667    462.83229    438.92049    37599.264 
   13900    298.41021   -1168.5863    265.63689     439.3124    -227.6876    37599.264 
   14000    304.60749   -1201.0048    280.32902    449.46156   -93.198296    37599.264 
   14100    300.59221   -1223.6047    272.81558    401.28733    -131.9095    37599.264 
   14200    297.07636   -1173.8276    291.87665    454.31108    104.12866    37599.264 
   14300    291.96727   -1207.8508    273.45766    378.88798    185.48525    37599.264 
   14400    297.60087   -1190.5147    276.27181    424.37844    258.16241    37599.264 
   14500    304.92265     -1191.22    265.86374    446.19873    72.079604    37599.264 
   14600     307.7179   -1184.2734    271.62678    471.48152    52.473272    37599.264 
   14700    303.38639   -1212.1526    287.67738    440.16965    302.94209    37599.264 
   14800    295.50308   -1139.1822    283.98693    473.99014    286.20852    37599.264 
   14900    295.93118   -1167.2397    284.30074    448.17206    512.51856    37599.264 
   15000    310.62441   -1212.0257    289.78566    474.96178    579.25342    37599.264 
   15100    288.75586   -1223.1007    284.10995    359.84535    494.81751    37599.264 
   15200    306.97437   -1181.2902    284.23608    483.72954    377.42527    37599.264 
   15300    295.96698   -1165.5549    289.31976    455.03686    464.55579    37599.264 
   15400    303.50277   -1225.1221    305.04214     445.0884    659.78871    37599.264 
   15500    296.06338   -1197.0507    302.19855    436.85344    616.60759    37599.264 
   15600    303.04702   -1182.4567    284.89522    465.55683    287.96911    37599.264 
   15700    302.80777   -1190.4652     304.3189    475.89585    118.29619    37599.264 
   15800    293.05921   -1199.5247    287.00824    405.67629   -134.83542    37599.264 
   15900    308.48997   -1163.4997    305.54724    529.64852    4.2615806    37599.264 
   16000    303.37624   -1160.7574    292.99142    496.83316   -68.254878    37599.264 
   16100    297.32301     -1137.63    319.58747    519.32899     205.0033    37599.264 
   16200     296.6766   -1118.0153    305.77772    522.22631    232.39711    37599.264 
   16300    309.49807   -1144.3576    309.80811    557.58591     568.5035    37599.264 
   16400    302.89814   -1144.9063    301.48038    519.02269    543.54576    37599.264 
   16500    297.66232   -1206.9645    317.23362    449.16684    18.305891    37599.264 
   16600    298.84077   -1235.0765     303.3026    412.42451    3.7789241    37599.264 
   16700    283.40239   -1271.8122    298.03085    300.97458    90.541586    37599.264 
   16800    293.71428   -1235.3162    316.34308    402.16613    300.14001    37599.264 
   16900     295.3212   -1197.2874    311.80704    442.88689    79.602821    37599.264 
   17000    309.29601   -1221.3112    300.60434    470.51969   -37.823557    37599.264 
   17100    294.50711   -1227.8866    310.57763    407.39653    545.80922    37599.264 
   17200     292.9554   -1244.9748    301.99784    374.74884   -149.37166    37599.264 
   17300     303.2418   -1255.2121    309.86517     418.6475     186.2156    37599.264 
   17400    293.52432   -1221.0766    319.37579      418.584    143.02475    37599.264 
   17500    305.23662   -1256.0284    307.85059    424.78942    461.49462    37599.264 
   17600    307.56758   -1224.9869    315.06038    473.52551    212.07848    37599.264 
   17700    310.54656   -1258.6888    313.03607    451.19889    353.34195    37599.264 
   17800    285.97561   -1195.0056    317.35274    408.67751    392.64257    37599.264 
   17900    295.96995   -1183.2571    318.63135    466.65964    81.933275    37599.264 
   18000     299.6244   -1187.4154    313.41636    473.72418     137.4004    37599.264 
   18100       305.83   -1169.1764     329.2527    535.71254     348.7859    37599.264 
   18200    304.87222   -1202.9365    306.74921    475.14086   -156.71032    37599.264 
   18300    317.58019   -1208.6829    300.31809    520.12435    -291.9302    37599.264 
   18400    316.85492   -1232.6264    316.86966    509.47014   -192.94337    37599.264 
   18500    311.79952   -1245.8509    325.41335    482.04993   -167.52383    37599.264 
   18600    304.07364   -1233.3934    320.73874    455.08145   -232.17489    37599.264 
   18700     300.5527   -1241.4781    326.41216    436.83285    134.54552    37599.264 
   18800    299.39251   -1297.3195    324.53235    373.89306   -12.525658    37599.264 
   18900     300.0279   -1224.4544    312.68675    437.77056    826.38608    37599.264 
   19000    291.31799    -1224.513    319.25897    405.10661    927.31998    37599.264 
   19100    300.80813   -1261.0172    328.52335    420.55383    358.61017    37599.264 
   19200    310.31134   -1226.6349    321.92408    491.08271    760.95916    37599.264 
   19300    300.13118   -1229.8855    316.04674    436.16396    380.83617    37599.264 
   19400    292.37835   -1249.5635    330.46291    396.02966    199.80472    37599.264 
   19500    282.90471   -1233.4155    339.30543     378.4073     554.8112    37599.264 
   19600    296.65493   -1278.4602    311.28022    367.18644    309.19813    37599.264 
   19700    301.31034   -1265.3321    310.14103    400.11559    300.06544    37599.264 
   19800    311.45584   -1227.9215    326.18344    499.20347    516.69897    37599.264 
   19900     311.2435   -1249.1577    319.27257    470.10135     43.40734    37599.264 
   20000    303.66128    -1208.838    334.21007    491.25336     -285.707    37599.264 
   20100    309.74551   -1248.9594    322.91953    467.20857   -172.65477    37599.264 
   20200    300.02937   -1270.0166    317.39807    396.92628   -367.89902    37599.264 
   20300    294.49548   -1267.3734    310.17283    367.45254   -108.06154    37599.264 
   20400    300.15276   -1269.0837    319.34116    400.35734    673.64399    37599.264 
   20500    307.16035   -1233.2423    336.05891    484.43687    292.31183    37599.264 
   20600    302.85843   -1244.6901    320.67957    438.25949     213.6624    37599.264 
   20700    306.93446   -1250.4379    323.60243    453.76872    479.37576    37599.264 
   20800    291.65823   -1257.5651    332.32628    386.65227    929.89203    37599.264 
   20900    301.52119   -1287.5275      335.478    404.20558    427.40548    37599.264 
   21000    308.70962   -1261.2874    334.93755    462.23907    992.26476    37599.264 
   21100    306.64857   -1259.9184    328.83205    448.23191    315.67014    37599.264 
   21200    299.01249   -1281.8915    331.79512     394.8745    601.70148    37599.264 
   21300    291.22406   -1222.9089    344.87962    431.90888    402.44454    37599.264 
   21400    302.20965   -1253.8738    304.66533    410.14333    219.63188    37599.264 
   21500     297.3414   -1251.8272    322.01123    407.63829   -139.44024    37599.264 
   21600     301.3845   -1285.6928    348.43565    418.38308    261.53097    37599.264 
   21700    307.75545   -1269.1664    334.32382    449.45447    486.61624    37599.264 
   21800    306.78075   -1262.0021    348.87852     466.7893    396.44913    37599.264 
   21900    302.01566   -1301.9629    339.68254    396.19893    828.62048    37599.264 
   22000    309.58524   -1291.0267    333.71367     435.2145    744.03255    37599.264 
   22100    289.42205   -1251.6606    340.36167    390.53371    926.36287    37599.264 
   22200    306.38523   -1285.7861    337.72958    430.07722    305.64495    37599.264 
   22300    302.47882   -1333.2473    342.04268    369.35794    374.10446    37599.264 
   22400    304.64496   -1306.6911     338.1693     401.7841    86.404363    37599.264 
   22500    300.99375   -1283.7571    333.99714    404.12262   -291.73708    37599.264 
   22600    313.09438   -1298.2307    346.30201    456.38312    355.70516    37599.264 
   22700     300.1383   -1276.6837    347.28335    420.63442   -268.15318    37599.264 
   22800    297.81403   -1274.5052    349.55028    414.62519    275.14155    37599.264 
   22900    302.43811   -1285.9163    325.72331    400.18649    186.66721    37599.264 
   23000    315.27192    -1263.216    331.35462    486.24512   -389.25215    37599.264 
   23100     293.3742   -1256.1539    345.29801    408.75363   -200.60893    37599.264 
   23200    301.13525   -1260.5439    337.13716    431.11237    150.71144    37599.264 
   23300    302.35218   -1260.4934    340.31204    439.81154   -293.84298    37599.264 
   23400    299.96659   -1217.3697    343.14574    475.03853   -135.05863    37599.264 
   23500    304.16569   -1250.3404    348.07247    465.88229   -112.69605    37599.264 
   23600    300.13365   -1241.5937    325.27588    433.69606    379.41518    37599.264 
   23700    290.77064   -1241.7098    346.85967    413.04847    722.21196    37599.264 
   23800     293.7684     -1268.02    362.23686    415.59955    572.38168    37599.264 
   23900    313.14722   -1256.7635    354.03219    505.81813    674.65759    37599.264 
   24000     314.8971   -1244.7144    355.64542    527.35148    1023.7636    37599.264 
   24100    295.28559   -1287.4848    342.58959    383.31182    509.97048    37599.264 
   24200    296.06673   -1242.4096     341.4333    430.74436    230.33701    37599.264 
   24300    293.17306    -1260.738    339.56314    397.52997    278.61074    37599.264 
   24400    303.11558   -1247.5674    352.67347    468.53272    90.429753    37599.264 
   24500    295.79599   -1231.9557    361.02807    459.57525    427.22214    37599.264 
   24600    298.64471   -1215.4581     357.4509    485.30931   -170.36924    37599.264 
   24700     296.7345    -1214.525    357.48388    477.68324     2.322597    37599.264 
   24800    298.25786   -1236.4658    355.92611     461.0368    282.40367    37599.264 
   24900    310.83982   -1203.5427    370.41447    565.04248    13.543917    37599.264 
   25000     297.0592   -1241.0096    353.87276    449.04798     194.1174    37599.264 
   25100    294.55327   -1243.4713    363.02605    444.46779    742.05086    37599.264 
   25200    303.50551   -1243.7752    349.74746    471.15292    898.95811    37599.264 
   25300    297.07287   -1278.3664    375.46067     433.3406    721.49004    37599.264 
   25400    306.92627    -1272.946    374.13663    481.75804    695.41911    37599.264 
   25500     306.3349   -1284.5846    343.86246     437.1852   -428.01057    37599.264 
   25600    304.33563   -1262.2108     334.6124    441.31613   -428.49861    37599.264 
   25700    305.54446   -1255.8603    375.26155    493.75316   -269.68809    37599.264 
   25800    299.56838    -1264.612      359.302     442.1612    74.400396    37599.264 
   25900    311.54872   -1264.7011    359.00172    495.65992   -178.10256    37599.264 
   26000    298.43647   -1314.0976    326.54763     354.8299    60.824752    37599.264 
   26100    304.20428   -1292.5332    354.30363     430.0942   -31.098876    37599.264 
   26200    302.42583   -1237.1438    340.81687    463.99727   -320.98382    37599.264 
   26300     295.4915   -1317.9424    353.66302    364.85396   -139.02052    37599.264 
   26400    296.42948   -1261.4535    363.24464    435.14351    175.15083    37599.264 
   26500    296.03379   -1266.5346    358.76683    423.80479    19.260045    37599.264 
   26600    292.37037   -1254.5233    360.91982    421.49083    632.65669    37599.264 
   26700    304.87274   -1303.6734     372.7201    440.37717    430.66571    37599.264 
   26800    300.47216    -1295.917     341.2241    396.84363    170.44678    37599.264 
   26900     304.8985   -1309.5491    352.05398    413.95129     81.39946    37599.264 
   27000    293.66726   -1306.8591    352.91183    366.98049   -12.014077    37599.264 
   27100    297.93962   -1282.2956    355.80506    413.65448   -86.399235    37599.264 
   27200    299.62713   -1296.6536    353.71824    404.80013   -242.12386    37599.264 
   27300    306.55383   -1296.9469    360.20999     442.1552   -330.66545    37599.264 
   27400    305.24298   -1253.2598    366.01183    485.74788    235.98989    37599.264 
   27500    303.67959   -1242.9445    344.01034    467.02947   -251.39266    37599.264 
   27600    293.60765   -1277.2272    359.97215    403.40465   -361.42001    37599.264 
   27700     294.8568   -1242.5105    356.73256    440.50041    -541.3335    37599.264 
   27800    304.10958   -1307.6298    342.65629    402.92425   -565.28497    37599.264 
   27900    294.72427   -1269.4695    353.10834    409.32111   -600.20859    37599.264 
   28000    294.79524   -1296.9064    366.17973    395.27481    66.983554    37599.264 
   28100    303.91729   -1272.7784    364.18281    458.43726    374.08178    37599.264 
   28200    292.09124   -1274.4136    362.80604    402.23127   -138.24107    37599.264 
   28300    296.70651   -1276.8086    362.00076    419.79066    350.94639    37599.264 
   28400    310.18983   -1300.7207    366.32699    460.85326   -230.56434    37599.264 
   28500    293.14999    -1286.962    374.70165    406.34075    342.04927    37599.264 
   28600    297.35027   -1306.6492    373.40186    404.24673    390.77743    37599.264 
   28700    308.74666   -1343.1322    351.37366    396.99696    782.37711    37599.264 
   28800    287.48859   -1272.1889    362.78872    383.73569     493.8915    37599.264 
   28900     288.5572   -1311.3155    360.65118    347.27819    547.23464    37599.264 
   29000    306.11767   -1292.1551    352.91357     437.6887    533.77171    37599.264 
   29100    299.74339   -1256.6189    365.71133    457.35083     280.5308    37599.264 
   29200     296.7625   -1211.9149    351.23961      474.175    568.83294    37599.264 
   29300    297.86696   -1263.2284    370.38265     446.9725    355.02353    37599.264 
   29400    300.90689   -1282.3777    369.53929    440.65356    745.23577    37599.264 
   29500    297.44986    -1301.386    376.70163    413.25771    697.63546    37599.264 
   29600    317.97968   -1292.6239    356.74236    494.40455    1081.6612    37599.264 
   29700    289.78687   -1313.8362    364.45686    354.09429    875.98454    37599.264 
   29800    296.28624   -1298.5876     374.7728    408.89327    177.03684    37599.264 
   29900    297.82042    -1274.098    384.37525    449.88611    214.16167    37599.264 
   30000    306.12755   -1297.3218    374.25621     453.9091    133.50423    37599.264 
   30100    308.07729   -1290.1798     358.4183    453.98324    504.14446    37599.264 
   30200    306.94454   -1290.6179     349.9348    439.96646    370.77095    37599.264 
   30300    313.19425   -1317.1268    363.06873    454.70296    39.122505    37599.264 
   30400    303.02984   -1285.6488    354.03488    431.42711    562.20973    37599.264 
   30500    295.99542   -1286.4878    378.82045    423.73263   -240.40303    37599.264 
   30600    304.13047   -1307.6909    382.79852    443.09931   -107.17904    37599.264 
   30700    308.02444   -1295.8529    377.60115    467.25524   -180.77945    37599.264 
   30800    299.75433   -1283.4024    379.50822    444.41353    -227.9936    37599.264 
   30900    297.53901   -1299.9553    370.97006    409.35779    -167.5108    37599.264 
   31000    305.24973    -1277.997     381.6764    476.70565    469.22562    37599.264 
   31100    294.87247   -1308.0284    341.13014    359.45059    276.67068    37599.264 
   31200    315.42582   -1279.9974    353.49844    492.29978    622.24373    37599.264 
   31300    297.94035   -1319.3525    363.74687    384.54268     381.3703    37599.264 
   31400     300.6014   -1281.4693    361.36555    432.01404    103.50121    37599.264 
   31500    302.29857   -1296.9055    346.79598    409.64228     276.5052    37599.264 
   31600     305.7524   -1257.1884    376.40049    494.49931    99.891909    37599.264 
   31700    302.67077   -1296.9879    406.71075    471.14875    853.18885    37599.264 
   31800    305.79401   -1298.0561    389.67402    467.09239    358.29779    37599.264 
   31900    291.78141   -1314.2007    385.49807    383.74253    405.15205    37599.264 
   32000    301.23569   -1281.0842    379.20921    453.09589    433.59981    37599.264 
   32100    298.07718   -1289.8833    400.64138    451.52189   -330.52996    37599.264 
   32200     304.0031   -1297.1279    392.29004      462.581   -205.16505    37599.264 
   32300    312.15197   -1314.9837    409.15088    498.23996    30.092513    37599.264 
   32400    306.04703    -1279.424    374.04633    471.23483    506.99473    37599.264 
   32500    291.05431   -1302.0825    397.16564    404.25775     398.1386    37599.264 
   32600    302.66109   -1308.2505    378.03976    431.17171    866.75627    37599.264 
   32700    300.77233   -1289.0778    367.20368    431.01256    608.66989    37599.264 
   32800    299.24636   -1297.5909    369.12522    417.55715     327.7775    37599.264 
   32900    297.37104   -1276.0394    369.79785    431.34598    246.68536    37599.264 
   33000    303.37089   -1289.3659    381.33384    456.54307   -37.238445    37599.264 
   33100    310.12788   -1308.5911    356.56255    442.93985    226.33344    37599.264 
   33200    300.29936   -1290.9106    404.13431     463.9829    266.35718    37599.264 
   33300     302.3869   -1302.1157     383.3712    441.40455   -145.87861    37599.264 
   33400    303.00326   -1308.1676    378.53282    433.28667   -155.61186    37599.264 
   33500    302.15208   -1298.7274    398.14525    458.51071   -19.821116    37599.264 
   33600    307.24193   -1305.7241    404.02753    480.29064    806.58932    37599.264 
   33700    296.69229   -1309.1169    375.01406    400.43164    736.02072    37599.264 
   33800    302.75279   -1323.2942    381.40887    419.90954     487.0654    37599.264 
   33900    295.35743   -1345.9604    367.80728    350.37712    963.71762    37599.264 
   34000    285.41339   -1306.4852    396.74399    374.06034    736.28818    37599.264 
   34100     287.3732   -1332.1903    384.65321    345.07973    333.75962    37599.264 
   34200    307.55778   -1343.5943    378.93203    418.74569    302.57075    37599.264 
   34300     293.6191   -1345.9727    360.44698    335.18545    48.595907    37599.264 
   34400    301.76068   -1347.5024    389.21207    399.04201    276.76141    37599.264 
   34500    295.86688    -1324.622    371.16032    377.36012    712.89751    37599.264 
   34600     302.5153   -1305.8995    375.93557    430.76267   -154.42155    37599.264 
   34700    305.40665   -1320.6725    381.73559    434.79512   -219.89621    37599.264 
   34800    299.39857   -1323.4371     374.3815    397.65188    304.30555    37599.264 
   34900    298.79059   -1325.1968    382.16292    400.93888      169.863    37599.264 
   35000    300.51707   -1304.4568    392.68496    439.96666    90.337749    37599.264 
   35100    298.12948   -1308.4457    387.42744    419.98075    280.44036    37599.264 
   35200    287.47914   -1309.8695    371.36947    354.59338    468.10644    37599.264 
   35300    298.29198   -1343.2281    356.36039    354.86229    219.16585    37599.264 
   35400    298.00134   -1321.7828    377.76105    396.40088    776.98984    37599.264 
   35500    314.13084   -1334.8133    358.95984    437.12034    695.45143    37599.264 
   35600    305.83996   -1370.5033    362.15563     367.3334    425.50279    37599.264 
   35700    296.20048   -1342.9884    367.32879    356.66273   -56.972249    37599.264 
   35800    300.47844   -1359.0589    378.35631     370.8622   -268.06447    37599.264 
   35900    314.74347   -1339.4615    355.94926    432.21727    394.70858    37599.264 
   36000    305.90831   -1321.1188    385.21489    440.08463    497.29058    37599.264 
   36100    322.25503   -1305.5388    399.82159    543.79955     384.6137    37599.264 
   36200    296.67615    -1294.546    380.83781    420.75372   -136.91672    37599.264 
   36300    298.76809   -1293.7864    388.94242    439.02756   -406.85204    37599.264 
   36400    298.63766    -1305.136    367.35697    405.50582   -1008.3462    37599.264 
   36500    305.15049   -1290.8348    372.52707    454.27205   -260.31011    37599.264 
   36600     302.5288   -1314.3592    388.40136    434.82949   -338.70394    37599.264 
   36700    289.84569   -1331.7787    398.74072    370.70023   -415.20574    37599.264 
   36800    303.26119   -1340.2219    377.88153    401.74132    -184.1192    37599.264 
   36900    296.62489   -1361.3828    384.89449    357.74301    23.187058    37599.264 
   37000     291.1539   -1393.1191     378.6828    295.18628   -435.69276    37599.264 
   37100     304.5758   -1386.9141    360.08467     343.1654   -218.94721    37599.264 
   37200    296.39954   -1363.6225    372.88823    342.48341    -108.1996    37599.264 
   37300    306.25912   -1345.6966    400.41296    432.28283    767.63712    37599.264 
   37400    310.72481   -1348.7179     384.8432    433.77867    306.87427    37599.264 
   37500    298.14288   -1357.6269    376.99969    360.43215    583.12812    37599.264 
   37600    290.71739   -1335.1931    398.12608    370.59209    23.707833    37599.264 
   37700    299.28585   -1292.4045    398.06559    451.86148    12.935748    37599.264 
   37800    297.59048   -1293.8325     356.2265    400.96861    -545.0794    37599.264 
   37900    307.62688   -1355.2523    398.76391    427.23033   -464.86352    37599.264 
   38000    292.25452   -1355.3192    392.56505    351.81908   -69.096319    37599.264 
   38100    290.48895   -1335.6344    392.61303    363.61019   -53.437467    37599.264 
   38200    302.13302   -1357.5324    394.69223    396.16692    65.729023    37599.264 
   38300    300.14192   -1337.3756    403.31855    415.99401    480.86886    37599.264 
   38400    298.10304   -1325.0314    390.10021    405.94887     289.2931    37599.264 
   38500    300.17391   -1329.5156    397.66047    418.33985    629.24698    37599.264 
   38600    301.89156   -1342.5466    406.44705     421.8215    693.10977    37599.264 
   38700    300.86862   -1317.0604    395.25662    431.51601    493.68818    37599.264 
   38800    296.74111   -1338.0209    385.11241    381.84557   -3.7952167    37599.264 
   38900    297.18424   -1334.3369     378.1693    380.57971    355.86368    37599.264 
   39000    295.04333   -1396.2721    391.64094    322.48623    85.514949    37599.264 
   39100    298.88455   -1370.6224    401.89408    375.66709   -109.75617    37599.264 
   39200    294.88909   -1377.1654     401.1731    350.43127    654.92883    37599.264 
   39300    312.34273   -1373.7097    413.70868    444.92987    321.43041    37599.264 
   39400    300.05192   -1360.1493    407.23977     396.7367    281.29029    37599.264 
   39500    302.42216   -1343.8909    380.74314    397.15992    380.13055    37599.264 
   39600    292.98299   -1350.4253    394.61394    362.03854    115.68544    37599.264 
   39700    296.86464   -1345.6397    413.65334    403.32337    89.742226    37599.264 
   39800    304.05615   -1282.8283    388.79042    473.61953    21.889419    37599.264 
   39900    305.62228   -1301.6902    401.59532    474.60708    576.93939    37599.264 
   40000    305.48605   -1336.8284    409.58117    446.84195    520.91836    37599.264 
   40100     304.1389   -1310.2489    402.72578    460.50649    368.17353    37599.264 
   40200    307.97766   -1367.4679    391.84975    409.67841    117.25325    37599.264 
   40300     305.0916   -1335.3591    392.76717    429.72295    720.92724    37599.264 
   40400    307.58763   -1306.2386    399.57793    476.88151    608.90557    37599.264 
   40500    298.89517   -1299.0709    396.59385    441.96606     98.97893    37599.264 
   40600    294.19145   -1316.3817    384.45957    391.36349    351.66631    37599.264 
   40700    297.87054   -1288.5039    415.03215    466.36261    362.86044    37599.264 
   40800    302.77616   -1306.6161     389.1984    444.48226     74.21618    37599.264 
   40900    300.74892   -1315.9668    389.87904    426.69365   -88.401975    37599.264 
   41000    288.69346   -1329.3444    401.57321    370.78424    297.83004    37599.264 
   41100     296.4196   -1311.3075    404.79317    426.79363    181.37532    37599.264 
   41200    300.55121    -1313.237    403.13135    441.78647   -199.76478    37599.264 
   41300    306.18105   -1312.5834    417.75533    482.38733   -463.03903    37599.264 
   41400    301.62127   -1394.3198    404.46426    366.84978   -356.83844    37599.264 
   41500    300.98475   -1403.6157     396.3917    346.61816   -329.44045    37599.264 
   41600    293.90739   -1395.2223     387.9706    314.75619   -372.20115    37599.264 
   41700    305.47069   -1397.5484    373.84697    350.31863   -138.79707    37599.264 
   41800    294.22334   -1333.3686    399.94467    390.00508   -214.87121    37599.264 
   41900    294.79616   -1375.9108    408.59417    358.68903    198.50777    37599.264 
   42000    304.68772   -1345.7878    387.57639    412.28683    502.43541    37599.264 
   42100    293.31913   -1406.2488    395.83938    308.95248    633.19756    37599.264 
   42200    292.80205   -1334.9059    409.32531    391.45546   -131.84236    37599.264 
   42300    300.38958   -1379.2913    398.34173    370.21549    154.95834    37599.264 
   42400    295.60071   -1315.4432    418.05105    432.23234     161.8402    37599.264 
   42500    297.05301   -1356.8458    411.51822    390.82943    700.37113    37599.264 
   42600    300.01738   -1347.3519     424.1837    426.32272    937.22495    37599.264 
   42700     302.0797   -1311.5564    420.38491    467.59575    709.33286    37599.264 
   42800    303.40619   -1295.5894    414.59567    483.74017    1002.2961    37599.264 
   42900    296.45614     -1326.11    409.77206    417.13436    664.58451    37599.264 
   43000    299.88662   -1335.4665    411.18676      424.623    32.908855    37599.264 
   43100    302.52342   -1321.5458    402.28709    441.50447    926.87863    37599.264 
   43200     299.4828   -1299.4177    392.86482    440.53341    225.54147    37599.264 
   43300    302.56309   -1308.8629    375.21171    427.29038   -258.16026    37599.264 
   43400    302.33175    -1330.499     387.4551    416.85715    235.30676    37599.264 
   43500    285.33774    -1369.102    394.78828    309.14755    420.18363    37599.264 
   43600    301.00325   -1331.0655     389.3604    412.22023    595.24958    37599.264 
   43700    301.93829   -1398.2111    409.48681      369.407   -61.479379    37599.264 
   43800    304.63365   -1359.0811    402.86651    414.04048    588.86134    37599.264 
   43900    294.57734   -1363.2432    415.14149    376.91964   -361.44804    37599.264 
   44000    300.47879   -1338.6276     402.0467    414.98543    -280.8208    37599.264 
   44100    312.11987   -1303.2249    406.65315     507.3566    133.52467    37599.264 
   44200    311.57407   -1313.9803    380.09273    467.58584    24.722519    37599.264 
   44300    294.92417     -1318.15    411.00063    419.43205   -318.90967    37599.264 
   44400    294.37455   -1331.0216    404.57809    397.66571    107.68056    37599.264 
   44500    304.10622   -1318.3016    416.20794    465.78894    279.71287    37599.264 
   44600    305.79117   -1350.6568    420.10571    444.91049   -326.18279    37599.264 
   44700     291.1892   -1354.7341    417.83499    372.88228    272.84153    37599.264 
   44800    304.32349   -1338.0372    410.13866    440.96145    352.69661    37599.264 
   44900    303.96372   -1342.0673    401.40823    426.58264    581.54357    37599.264 
   45000    303.82458   -1346.4548    412.54662    432.70767    707.92296    37599.264 
   45100    311.41324   -1354.9774    401.16865    446.94121    63.129861    37599.264 
   45200    293.14198   -1333.3574    427.96514    413.17275    213.14962    37599.264 
   45300    306.14845   -1315.6245    427.99858    489.44279    400.31179    37599.264 
   45400    294.22209   -1343.8962    418.18917    397.71633   -124.26488    37599.264 
   45500    291.35345    -1327.549    427.06453    410.03571    159.03001    37599.264 
   45600    296.88848   -1338.4414    422.67779    419.65328    437.32351    37599.264 
   45700    308.34037   -1331.8511    424.25739     479.3344    364.24713    37599.264 
   45800    298.52483   -1325.7488     416.2278    433.25638    415.80764    37599.264 
   45900    296.13778   -1333.9166    398.62396    396.74762    71.842368    37599.264 
   46000    305.76222   -1373.4895    407.92369    409.76565   -76.348254    37599.264 
   46100    287.16866    -1356.551    421.28597    356.43182    39.621074    37599.264 
   46200    306.04138   -1348.0998    394.76605    423.25336   -252.13143    37599.264 
   46300    300.13776   -1372.5146    418.12393    395.64172   -224.42754    37599.264 
   46400    303.68533   -1373.1253    410.45591    403.32006    345.49509    37599.264 
   46500    307.90264   -1326.6884    393.25457    451.52532    671.00192    37599.264 
   46600    306.61474   -1329.2097    395.22348    445.17989    602.73563    37599.264 
   46700    303.59486    -1377.137    395.39876    383.84433    619.67257    37599.264 
   46800     306.1754   -1372.0635    377.39889    382.52529    873.37542    37599.264 
   46900    307.58469   -1321.6489    434.92002    496.80006       716.88    37599.264 
   47000    299.34257   -1315.8506    432.32833    462.93333    834.89556    37599.264 
   47100    300.51071   -1341.9472    407.42764    417.19029    577.89831    37599.264 
   47200    297.09843     -1396.43    401.73802    341.66937     133.1136    37599.264 
   47300    304.87559   -1387.2388    408.11675    392.22123    216.86471    37599.264 
   47400    295.57879   -1369.3878    408.16025    368.29837    328.52727    37599.264 
   47500    295.59909   -1345.8741    410.10275    393.84587    27.764792    37599.264 
   47600     308.2427   -1355.7549    406.32576    437.05955     -150.708    37599.264 
   47700    295.28563   -1354.3409    407.71316    381.57951   -299.50512    37599.264 
   47800    299.06054   -1331.0902    398.37724    412.47406   -69.367474    37599.264 
   47900    296.15267   -1317.3179     439.5382    454.32761    416.82541    37599.264 
   48000     297.2423   -1361.6614    398.02936    373.37639    -361.1715    37599.264 
   48100     310.9024    -1378.099    417.22712    437.58027    351.76622    37599.264 
   48200    294.21581   -1401.7954    401.76112    323.36084    563.97927    37599.264 
   48300    299.57389   -1396.4847    437.10316    388.11454    357.03496    37599.264 
   48400    306.74878   -1387.6426    410.98933    403.11568   -87.753326    37599.264 
   48500    298.60554   -1378.1944    401.79785    366.74381   -69.150709    37599.264 
   48600    295.94124   -1371.8486    410.74042    370.04805    65.655642    37599.264 
   48700    295.15755   -1382.8709    393.66876    338.42905    58.814433    37599.264 
   48800    297.29616   -1364.0126    399.25698    372.49509    347.41702    37599.264 
   48900    294.89783   -1375.8201    398.89427    349.53712    123.25376    37599.264 
   49000    301.85985   -1410.4736    403.02984    350.33469    172.14827    37599.264 
   49100    303.60528   -1382.3369    404.09799     387.3905   0.39867642    37599.264 
   49200    310.07933   -1348.5546    414.32613    460.52152   -38.893803    37599.264 
   49300    302.33029   -1387.4804    402.15823    374.57228   -529.38548    37599.264 
   49400    302.04177   -1416.9863    396.49918    338.10955   -50.264495    37599.264 
   49500    291.62021   -1381.9503    422.05181    351.82159   -288.22177    37599.264 
   49600    299.75453   -1367.1784    415.79601     396.9262   -32.085102    37599.264 
   49700     311.5798   -1346.7004    442.95721    497.75595   -273.06246    37599.264 
   49800    312.86252   -1413.3557    412.59802    406.51121    -385.4972    37599.264 
   49900    301.85428   -1377.7781    408.74081    388.71606   -16.084615    37599.264 
   50000    299.72901   -1422.8278    420.09907    345.46501    179.22593    37599.264 
   50100    302.73342   -1418.1977     407.9403    351.45037    14.857542    37599.264 
   50200    293.47292     -1417.79     411.0926     313.3562    328.33057    37599.264 
   50300    303.28575   -1381.1633    425.97966    409.00852   -94.572741    37599.264 
   50400    298.10596   -1377.8743    438.52108    401.54004   -302.58746    37599.264 
   50500    304.71834   -1378.3375    409.76856    402.06703    -238.8285    37599.264 
   50600    300.28491   -1385.4873    421.39959    386.60651    3.0914394    37599.264 
   50700    304.29966   -1437.7065    411.75349    342.79974   -433.54891    37599.264 
   50800    293.85801   -1443.9251    431.63941    309.50013   -132.97742    37599.264 
   50900    293.16173   -1443.6881    410.75274    285.71856   -609.78427    37599.264 
   51000    305.41187   -1404.5379    406.52483    375.74245   -462.37479    37599.264 
   51100    298.33505   -1402.3873    412.72862    352.26499    303.65617    37599.264 
   51200      301.978   -1447.2828    418.11644    329.14352    124.85357    37599.264 
   51300    306.01488   -1431.5619    412.39019    357.29619    498.78782    37599.264 
   51400    299.05636     -1430.75     407.6998    322.11798    451.27519    37599.264 
   51500    300.52635    -1367.523    414.96124    399.21847    396.87511    37599.264 
   51600    314.38137   -1376.9737    414.65647    451.78348    352.40789    37599.264 
   51700     301.3714   -1389.3046    429.16142    395.43815    390.87614    37599.264 
   51800    306.57815   -1395.5537    432.25131    415.69913     444.5329    37599.264 
   51900    311.11551   -1364.3943    414.17262    449.18904    400.77406    37599.264 
   52000    297.50979   -1371.7323    430.84088    397.32023    412.28744    37599.264 
   52100    290.79079   -1372.8399    416.93194    352.08132    94.330626    37599.264 
   52200     294.5036   -1351.1865    417.28113    390.78432   -377.01254    37599.264 
   52300    298.01651   -1410.0338    413.00134    343.45843    -277.7383    37599.264 
   52400    297.66359   -1412.5811    435.73239    362.05475    565.24616    37599.264 
   52500    310.53276   -1384.7255    460.28241    472.34638      1035.34    37599.264 
   52600    298.02051   -1374.1738    422.31454    388.64965    233.85576    37599.264 
   52700    298.24436   -1403.2633    427.39398    365.64644   -171.00821    37599.264 
   52800    301.40755   -1370.7786    428.05631    413.02163   -361.67067    37599.264 
   52900    299.95561   -1384.1097    430.88878    395.99214   -148.12911    37599.264 
   53000    301.08696   -1349.9445    427.23719    431.59461   -515.97429    37599.264 
   53100    303.66066   -1369.4366    432.76685    429.20879   -527.10447    37599.264 
   53200    304.78836   -1387.5182    417.86016    401.29295   -0.4505439    37599.264 
   53300    297.37684   -1378.9726    459.95016    418.59121    694.30655    37599.264 
   53400      301.942   -1376.4741    415.22574    396.89954    753.25617    37599.264 
   53500     299.2029   -1383.6084    400.30579     362.5247     672.7056    37599.264 
   53600    302.25471   -1400.3847    443.32182    402.49165    161.73619    37599.264 
   53700    296.78429   -1391.6742    415.31708    358.59118    242.02399    37599.264 
   53800    296.50697   -1364.6369    441.77483    410.83883    456.45012    37599.264 
   53900    298.64274   -1381.6993    423.99335    385.60171    41.450489    37599.264 
   54000    298.74107   -1367.1958    437.35852    413.91265    238.18867    37599.264 
   54100    298.91716   -1367.5772    413.80807    390.77291    335.10395    37599.264 
   54200    307.98743   -1354.5741    438.52791    469.29433    319.58997    37599.264 
   54300     295.0281   -1345.1195    433.12497    415.05433     400.1064    37599.264 
   54400    302.40325   -1332.6001    427.95917    455.58175    292.33279    37599.264 
   54500    304.86247        -1344    422.81129    450.09564    30.756619    37599.264 
   54600    304.55867    -1328.186    415.09466     456.8265   -143.69193    37599.264 
   54700    302.19981   -1347.5782    438.86606     450.5954    260.47469    37599.264 
   54800    303.00871   -1343.0773     434.1398    454.00851    296.30971    37599.264 
   54900    304.06003   -1381.3818    435.46522    421.75834    412.16604    37599.264 
   55000    291.44815   -1404.7864    430.89815    337.05786    439.62984    37599.264 
   55100    298.58594   -1420.3353    434.61212    357.32901    500.62806    37599.264 
   55200    294.07412   -1374.4784    431.63811    379.91759    528.28224    37599.264 
   55300    289.10181   -1398.0564    439.84674     342.1826     494.9065    37599.264 
   55400    293.01991   -1409.8685    438.41441    346.56187    576.26302    37599.264 
   55500    308.55484   -1415.1874     422.7628    395.46811    259.19151    37599.264 
   55600    288.85289   -1414.2932    442.44936    327.42874    453.41128    37599.264 
   55700    295.14514   -1377.9075    427.23365     376.9015    642.67122    37599.264 
   55800    303.24745   -1429.4272    402.49143    337.08415    337.18735    37599.264 
   55900    302.85199   -1424.0936    449.86431    388.01177    101.94924    37599.264 
   56000    296.60957   -1382.8784    426.96088    378.24492    -346.8893    37599.264 
   56100    312.65054   -1382.8432    442.90371    466.37592   -245.12018    37599.264 
   56200    306.67433   -1409.3724    430.66529    400.72701   -302.29395    37599.264 
   56300    300.79133   -1420.9166    443.41759    375.47312   -4.2555443    37599.264 
   56400    304.55632    -1400.181    395.46167    365.18792    452.47428    37599.264 
   56500    306.09585   -1429.2479    412.20679    359.79096     483.2786    37599.264 
   56600    303.28945   -1402.5037    446.86787    408.57301    1082.3717    37599.264 
   56700    303.22887   -1400.1186     432.3717    396.18943    462.97103    37599.264 
   56800    307.47474   -1428.7011    418.87567    373.20897    156.16846    37599.264 
   56900    303.34694   -1415.6541    427.95407    376.76739    472.43461    37599.264 
   57000     303.9146    -1409.562    441.79189    399.25065   -82.841747    37599.264 
   57100    303.78721   -1439.8693     436.0631    362.64153   -4.1600275    37599.264 
   57200    304.78217   -1419.3693    433.17172    384.72557   -297.26824    37599.264 
   57300    289.69872   -1377.8399    387.08599    312.32327   -883.09308    37599.264 
   57400    305.10413   -1380.2674    418.98264    411.08652   -894.66978    37599.264 
   57500    285.68992   -1412.3071    438.85965    311.59797    -764.3436    37599.264 
   57600     303.3731   -1400.2932    436.12796    400.41976   -355.89158    37599.264 
   57700    282.81376   -1345.8447    465.48146    391.74497   -244.18338    37599.264 
   57800    305.96235   -1375.7193    452.97395    453.48624   -439.41946    37599.264 
   57900    301.46466   -1331.3913     411.7357    436.34524   -419.50617    37599.264 
   58000    291.09925   -1390.5563    447.76911    366.58958   -1030.0807    37599.264 
   58100    308.21872   -1384.2232     416.9002    419.05788   -634.38016    37599.264 
   58200    295.33194   -1386.1222    412.15532    354.44868    -295.4784    37599.264 
   58300    300.48774   -1395.1702     436.5886    393.02497    190.80549    37599.264 
   58400    305.71623   -1414.7471    431.35974    391.73718   -76.821438    37599.264 
   58500    300.09167    -1457.041    438.34583    331.12987    344.68383    37599.264 
   58600    301.30167   -1436.6448    427.81689    346.43976   -167.90554    37599.264 
   58700    300.84284   -1428.0009     420.7669    345.96982   -25.163226    37599.264 
   58800    292.12299   -1453.6907    416.19082    276.48168   -184.99476    37599.264 
   58900    291.78346   -1407.8057    428.91821    333.56689   -134.35079    37599.264 
   59000    291.98271   -1413.6548    428.48539    328.18121   -570.11043    37599.264 
   59100     302.8367   -1402.2641    445.48694     405.3952   -281.64438    37599.264 
   59200    294.20681   -1407.1517    445.47617    361.67918    64.983297    37599.264 
   59300    302.36977   -1434.6416    459.82966    385.26007     439.9869    37599.264 
   59400    299.53809   -1406.6063    432.90998    373.63873   -203.46894    37599.264 
   59500    299.58783   -1379.3858    406.50519    374.67815    417.05581    37599.264 
   59600    316.37867   -1388.7459    448.74239    483.08109    844.04086    37599.264 
   59700    303.87876    -1432.826    416.54481     350.5784    1003.1114    37599.264 
   59800    297.19491   -1420.5572    441.69683     357.9349    460.48257    37599.264 
   59900    307.46377    -1388.126    424.02641    418.88543    131.16747    37599.264 
   60000    295.63434   -1397.8959    425.24959    357.12944    415.27616    37599.264 
   60100    296.88778   -1393.3216    431.36276    373.45502   -114.39589    37599.264 
   60200    301.91856   -1423.9282    423.55809    357.67234    140.13539    37599.264 
   60300    303.30834   -1356.7596    445.22196    452.75611    464.16968    37599.264 
   60400    301.80613   -1441.7187    412.24617    328.06418   -181.48964    37599.264 
   60500    295.12574   -1404.8389    411.78492    334.43412    193.79444    37599.264 
   60600     306.2336   -1410.5613    435.84814    402.73851    182.38356    37599.264 
   60700    300.49904    -1410.449    409.19989    350.40831    479.75956    37599.264 
   60800    292.20542    -1460.968    426.39261    279.77696    177.29923    37599.264 
   60900    290.56743    -1453.952     417.3699    270.40249     27.13486    37599.264 
   61000    292.97775   -1427.6468    414.79368    304.97319    331.45052    37599.264 
   61100    294.25818   -1484.6093    412.73701    251.71347    132.84915    37599.264 
   61200    294.48003   -1461.4339    394.25891    257.40863    247.67156    37599.264 
   61300    290.02321   -1460.1929    413.93848    258.28224    89.418303    37599.264 
   61400    295.77716   -1455.4536    424.34645    299.31102    238.24336    37599.264 
   61500    297.71713   -1473.7389     425.6635    291.06885    23.210963    37599.264 
   61600     294.0758   -1464.3705    442.75096     301.1459    188.59518    37599.264 
   61700    303.66926   -1477.6587    431.84535    320.10385   -560.56381    37599.264 
   61800    295.19198   -1466.4662    387.46926     248.7891    186.84619    37599.264 
   61900    293.44063   -1432.3457    434.15951    321.72223   -375.36702    37599.264 
   62000    300.68099   -1432.3471    421.00619    341.13486   -637.64302    37599.264 
   62100    289.92336   -1441.0814    425.14719    288.15335   -577.58965    37599.264 
   62200    298.63028   -1428.1177    444.99409    360.12805   -95.920559    37599.264 
   62300     297.0737   -1401.4569    402.30208    337.09525   -235.48992    37599.264 
   62400    306.96219   -1385.6087    427.08453    422.20475   -98.414908    37599.264 
   62500    291.43005    -1413.983    433.01008    329.89174   -916.12302    37599.264 
   62600    296.23086    -1454.692    395.85229    273.61919   -184.76986    37599.264 
   62700    299.18874   -1427.1351    440.10358    358.73214   -97.527811    37599.264 
   62800    296.44036   -1406.8845    422.61165    349.12843    22.020739    37599.264 
   62900    298.55206   -1397.9703    426.46813    371.39766    182.73868    37599.264 
   63000    306.41641   -1374.7325    431.93124     435.4727    414.18961    37599.264 
   63100    308.31008   -1398.3069    452.90912    441.39401   -80.841497    37599.264 
   63200    302.07206   -1444.5887      436.613    350.75727    696.95488    37599.264 
   63300    301.71053   -1423.4761    440.68404     374.3147   -17.795521    37599.264 
   63400     297.4126   -1410.5119    464.37333    391.63593    366.40193    37599.264 
   63500    300.95074   -1408.4317     430.1929    375.45031    126.14567    37599.264 
   63600    301.85076   -1419.7392    442.73884     380.7371    24.131931    37599.264 
   63700    299.04043   -1409.4421    435.69416    371.34861   -34.009787    37599.264 
   63800    301.74356   -1401.3167    438.84891    394.78757    174.58896    37599.264 
   63900    306.45048    -1447.165    401.85119    333.11347   -99.351099    37599.264 
   64000    306.07011   -1391.2844    423.92169    409.35356   -326.96065    37599.264 
   64100    303.06863   -1426.9147    440.69603    376.99684   -202.35013    37599.264 
   64200    307.27102   -1408.5693    414.45557    388.00433   -324.06702    37599.264 
   64300    301.11479   -1404.3594    430.00125     380.0689   -145.53307    37599.264 
   64400    309.05325   -1386.0426    430.89288    434.98485   -291.68125    37599.264 
   64500    296.23567   -1402.5276    416.66777    346.62083   -164.78528    37599.264 
   64600    301.10734   -1394.1965    430.56856    390.76558   -298.27519    37599.264 
   64700    302.97406   -1378.9843    439.55061    423.35649   -612.42352    37599.264 
   64800    295.91879   -1395.0806    449.97049    385.94511   -552.20196    37599.264 
   64900    294.94734   -1418.4905    429.65373    337.84882    95.714315    37599.264 
   65000    294.85655    -1380.502    445.53938    391.31467     25.94773    37599.264 
   65100    295.77386   -1374.2614    453.62679    409.76874    87.464504    37599.264 
   65200    294.82594   -1386.4648    429.78878    369.46353    -475.5844    37599.264 
   65300    306.79614   -1389.1993    454.49071     445.2734   -152.34522    37599.264 
   65400    305.64108   -1367.3341    436.42699    443.87945    141.96392    37599.264 
   65500    296.70789   -1378.6393    420.60165    376.56703    -352.1908    37599.264 
   65600    296.08245   -1358.5089    439.74816    413.03062   -257.12203    37599.264 
   65700    313.98819   -1376.8356    429.52622    465.02279   -142.53992    37599.264 
   65800     305.5181   -1395.6374     458.9257    437.52162   -539.46511    37599.264 
   65900    296.83663   -1392.1777    447.51144    390.51747    69.309753    37599.264 
   66000     303.6988   -1417.9376    419.94133    368.05382    244.41732    37599.264 
   66100    292.30192   -1406.1774    452.54598    361.15504    109.28752    37599.264 
   66200    307.50145   -1381.7397    457.88203     459.2969    92.749336    37599.264 
   66300     294.9046   -1449.7984    447.02395      323.719    450.27207    37599.264 
   66400    301.59869   -1452.5608    419.89762    323.94051    126.64526    37599.264 
   66500    307.54867   -1422.0709    443.45604    404.75211    80.081565    37599.264 
   66600    301.57388   -1445.1063    412.85413    324.23996   -114.48404    37599.264 
   66700    309.66372   -1453.5102    420.92577    360.29609   -200.48624    37599.264 
   66800    297.14397   -1397.8217    439.74239    378.48686   -360.62463    37599.264 
   66900    298.54199   -1384.9232    462.76292    420.69423    293.98038    37599.264 
   67000    300.27678   -1393.6024    469.68488    426.74015    341.75953    37599.264 
   67100    297.21542    -1406.162    445.81824    376.54377    326.98968    37599.264 
   67200    314.00765   -1388.6135    434.88335    458.68963    44.768195    37599.264 
   67300    295.13208   -1403.1384    439.11411    363.49226   -287.93803    37599.264 
   67400    308.87475   -1372.4877    442.76678     459.6108   -657.57072    37599.264 
   67500    301.39415    -1409.194    445.10788    391.59754    4.5281697    37599.264 
   67600    287.99308    -1391.763    423.05025    326.69229   -8.8486208    37599.264 
   67700    307.40396   -1424.5786     431.7954    389.93285   -9.1862358    37599.264 
   67800    304.69142   -1393.6627    460.63316    437.48536   -131.06267    37599.264 
   67900    300.44051   -1400.2868    452.05238    403.15974   -114.59773    37599.264 
   68000     308.4194   -1420.7636    437.52089    404.04083   -194.05758    37599.264 
   68100    309.10314   -1381.7579    454.85634    463.45746   -172.98676    37599.264 
   68200    298.09565   -1399.6181    427.65176    368.88053   -520.87709    37599.264 
   68300    291.29427   -1371.6985    442.20979    380.76527   -253.53856    37599.264 
   68400    297.13983   -1416.3345    442.49933    362.71241   -52.415806    37599.264 
   68500    299.95632   -1424.7946    428.98648     353.4081    437.20548    37599.264 
   68600    295.08732   -1426.3083    454.09911    355.10609    640.38229    37599.264 
   68700    307.87133   -1414.1037    435.29286    406.00743    363.76156    37599.264 
   68800    304.90438    -1406.676     424.0341    388.83093    753.12748    37599.264 
   68900    301.52829   -1451.8226    419.50354    323.96791    724.73207    37599.264 
   69000    291.40051   -1438.8943    465.58811    337.42563    552.35848    37599.264 
   69100    307.68938   -1440.6354     431.8163     375.1808   -66.582805    37599.264 
   69200    312.45511   -1437.4685    472.53745    440.50528    5.6353617    37599.264 
   69300    298.47469   -1444.1905    442.36709    340.72837     4.407027    37599.264 
   69400     306.8996   -1452.0909     421.4265    349.78306   -234.01699    37599.264 
   69500    293.18764   -1474.2875    421.62145    266.10433   -190.40457    37599.264 
   69600    303.93991   -1453.8345    449.73281    363.03296    43.408908    37599.264 
   69700    302.20475   -1458.6617    452.94612    353.61417    109.44283    37599.264 
   69800    303.81345   -1475.7412    428.14405    318.96864     791.7468    37599.264 
   69900     303.2292   -1475.0633    433.90273    322.77717    550.70511    37599.264 
   70000    301.58905   -1485.9944    446.11616    316.68207    1248.9038    37599.264 
   70100    296.07141   -1482.2345    432.09996    281.60722    1271.7697    37599.264 
   70200    301.91059   -1485.8495    421.49097    293.64805    588.68657    37599.264 
   70300    297.75612   -1519.1831    434.26671    254.40327    527.20193    37599.264 
   70400    307.26821   -1467.7764    425.30007    339.62907    193.89972    37599.264 
   70500    299.87877   -1488.6259     418.8916    279.13315   -312.93232    37599.264 
   70600    297.20697   -1481.9802    432.92431    287.79366   -609.25836    37599.264 
   70700    302.68706   -1501.5026    433.53037    293.52698   -68.397215    37599.264 
   70800    296.22535   -1506.9911    430.66294    256.10598    68.632161    37599.264 
   70900    312.04533    -1436.921    443.21125    409.88337   -62.567494    37599.264 
   71000    299.73949   -1434.3731    452.69161    366.55941   -78.702271    37599.264 
   71100    299.60286   -1432.1571    433.50427    348.97355    185.29498    37599.264 
   71200    302.98571   -1466.3725    450.10286    346.57294    724.46794    37599.264 
   71300    307.22258   -1489.5446    421.70212    314.05775    264.77928    37599.264 
   71400    301.88202   -1433.6102    417.56286    341.83071    151.28546    37599.264 
   71500    306.65135   -1461.7946    429.18613     346.7223    126.82083    37599.264 
   71600    304.99644   -1457.4652    419.95539    334.37713    128.14735    37599.264 
   71700    297.20747   -1411.3698    459.14699    384.62894    619.20651    37599.264 
   71800    288.00104   -1416.6884    454.85068    333.60315    982.93817    37599.264 
   71900    298.07161   -1448.6179    433.76891    325.88977    655.90271    37599.264 
   72000    309.39719   -1458.4253    432.30533    365.56168    795.98493    37599.264 
   72100    292.19611   -1466.7664    438.04736    285.59147    807.51611    37599.264 
   72200    305.70948   -1487.7497    421.07111    308.41563    137.68786    37599.264 
   72300    301.22703    -1481.075    444.70002    318.55693    153.16682    37599.264 
   72400    305.99204   -1460.1609    419.55438    335.75868     350.9535    37599.264 
   72500    306.17065   -1448.9873    423.44958    351.63083    261.50617    37599.264 
   72600    292.08943   -1438.8825    447.43434     322.3824    323.37801    37599.264 
   72700    304.48814    -1460.367    443.57704    352.81058    56.347193    37599.264 
   72800    305.63715   -1429.5388    435.67957    380.90964     -117.695    37599.264 
   72900     305.3902   -1420.7687    416.91149    369.80089    114.95635    37599.264 
   73000    294.94397   -1423.8137    421.21323    324.06998   -60.553137    37599.264 
   73100    302.46929   -1458.5473    405.70771    307.68009     282.4995    37599.264 
   73200    306.08955   -1462.3037    418.86526     333.3653    327.99751    37599.264 
   73300    302.05408   -1439.8309    432.12433    350.94545    739.16126    37599.264 
   73400    296.02469   -1474.0199    393.21807    250.72973     202.2407    37599.264 
   73500    312.35448   -1448.1948    411.86473    368.65367    59.701687    37599.264 
   73600    301.07426   -1449.8918    436.09747    340.45042   -96.621932    37599.264 
   73700    299.32753   -1451.6789    455.19677    349.90582   -303.42936    37599.264 
   73800    297.04431   -1430.3934    407.08804    312.81249   -85.719183    37599.264 
   73900     298.6936   -1396.8293    420.73525    367.44245   -8.1006798    37599.264 
   74000    308.10154   -1428.6312    420.82229    378.04488     53.83848    37599.264 
   74100    295.98504   -1421.8602    443.62042    353.11346    179.09318    37599.264 
   74200    287.77987   -1430.3387    405.98276    270.09008   -169.85563    37599.264 
   74300    305.13256   -1384.4033    427.11502    415.21086    95.188365    37599.264 
   74400    307.96081   -1420.1845    455.46069    420.49698    126.57537    37599.264 
   74500    300.96897   -1403.7102    448.02797    398.08891    153.47688    37599.264 
   74600    300.72979   -1436.3436    462.66917    379.02096   -24.259685    37599.264 
   74700    299.13518   -1412.4533    451.60134    384.67075    149.22972    37599.264 
   74800    298.12729   -1410.0735    439.62721    370.54288    124.15957    37599.264 
   74900    290.92369   -1451.4248    421.98858    279.15085   -55.378797    37599.264 
   75000    302.87669   -1400.9536    417.03757    378.43615   -683.85248    37599.264 
   75100    298.28474   -1362.5281    452.39755    431.56681   -248.62948    37599.264 
   75200    292.88648   -1384.4148    450.09955    383.10054    -103.7702    37599.264 
   75300    291.02298   -1374.1314    460.01874     394.9211    74.150422    37599.264 
   75400     303.9841   -1375.8052    471.90282    463.43095    440.43834    37599.264 
   75500    293.54479   -1396.5877    448.45356    372.24279    346.54526    37599.264 
   75600    300.91772     -1396.81    420.83044    377.56113    227.48599    37599.264 
   75700    307.93474   -1392.5944    426.50324    419.01235   -106.49255    37599.264 
   75800    291.71486   -1418.8576     450.4764    343.76461    -77.42875    37599.264 
   75900    297.24083   -1375.1276    450.99975    412.87402   -215.35346    37599.264 
   76000    297.26486   -1392.3499    448.30827    393.06832    120.26685    37599.264 
   76100    298.49285   -1379.1009    434.76316    398.29569    74.890969    37599.264 
   76200    300.91403    -1385.127    438.74046     407.1375   -247.96159    37599.264 
   76300    308.32408   -1355.2139    448.35719    479.99809    293.97139    37599.264 
   76400     291.5282   -1370.9811    429.29992    369.62509   -478.92787    37599.264 
   76500    298.97281    -1399.657    454.29902    399.43435     499.8167    37599.264 
   76600    296.19326    -1432.287    444.53652    344.53934    199.65952    37599.264 
   76700    294.43101   -1379.1031    454.44985    399.70992     93.82645    37599.264 
   76800    294.98003   -1422.7126    421.76667     325.8868   -128.99129    37599.264 
   76900    305.07331   -1397.9279     469.3915    443.69627   -489.53016    37599.264 
   77000    313.98493   -1397.9731    432.42266    446.76709   -25.699711    37599.264 
   77100     302.5633   -1356.2727     430.0374    434.70727    310.39079    37599.264 
   77200     314.2533   -1362.5554    434.28673    485.25592    329.28798    37599.264 
   77300    294.74277   -1413.1747    431.93323    344.52396    708.80656    37599.264 
   77400    296.71205   -1394.4964    438.85142    378.97841       529.53    37599.264 
   77500    281.19291   -1379.1546    445.83431    331.49732   -5.0506416    37599.264 
   77600    292.78346   -1367.3078    452.07237    401.71698    419.55144    37599.264 
   77700    296.08117   -1394.3089    440.61158    378.08831    781.04005    37599.264 
   77800    295.25552   -1360.6797    448.98633    416.37848    818.77925    37599.264 
   77900    306.17841   -1402.5915    457.92363    432.53558     781.4912    37599.264 
   78000    301.78835   -1400.7384    449.65121    406.36961    588.02664    37599.264 
   78100    301.12379   -1403.8648    437.41313    388.01589   -356.87318    37599.264 
   78200    286.57751   -1395.9944     440.8521    333.89549   -192.05416    37599.264 
   78300    307.87735   -1423.3236    442.24805    403.76979   -490.31989    37599.264 
   78400    294.10693   -1445.9081    423.36889    300.36617   -151.20892    37599.264 
   78500    297.56206   -1417.2933    406.74032    327.89379   -353.44159    37599.264 
   78600    295.49388   -1409.7983    420.98517    340.33086   -77.390996    37599.264 
   78700     309.0174   -1397.3822    410.50712    403.09824   -371.82299    37599.264 
   78800    296.85316   -1422.1299     433.6097    346.73787   -306.70979    37599.264 
   78900    291.80337    -1409.394    433.45772    336.60763   -115.66162    37599.264 
   79000    298.86111   -1484.2995     414.7995    274.78988   -701.41206    37599.264 
   79100    305.07945   -1413.1055    432.04619      391.201   -454.13059    37599.264 
   79200    302.28348   -1446.3657    438.98884    352.30709    322.65754    37599.264 
   79300    301.80448   -1465.3706    430.14183    322.30057    480.39164    37599.264 
   79400    306.76572   -1457.1227    424.04567    346.76816   -118.00863    37599.264 
   79500    292.33093   -1464.4584    415.55666    266.01514    49.245709    37599.264 
   79600    302.81293   -1454.8898    452.48441    359.65999    11.884009    37599.264 
   79700    295.39612   -1428.9511    441.31538    341.06851    244.63538    37599.264 
   79800    295.16715   -1459.5213    408.07311    276.22619   -441.48655    37599.264 
   79900    298.94809   -1416.9968    432.27103    359.95546   -123.04731    37599.264 
   80000    300.20757   -1423.2947    426.54154     353.5932   -22.770814    37599.264 
   80100    304.21052   -1442.4427     434.2658    360.17493    170.76722    37599.264 
   80200    295.42661   -1439.5512    439.87665    329.16687    451.21207    37599.264 
   80300    300.51987   -1423.0197    437.72042    366.45186    459.50014    37599.264 
   80400    298.13033   -1394.5325    438.38752    384.85787    539.18309    37599.264 
   80500    300.21737   -1415.9215    426.49572    360.96466    549.37588    37599.264 
   80600    298.81341   -1408.0536    413.67046    349.69226    620.71765    37599.264 
   80700     307.3797   -1419.8787    429.45435    392.18254    414.82725    37599.264 
   80800      286.427   -1428.8759    458.85336    318.33825    885.60522    37599.264 
   80900    304.97838   -1450.3095    434.82936    356.32554    382.01361    37599.264 
   81000    298.15511   -1399.7943    454.74159    396.06157    188.97662    37599.264 
   81100    295.50176   -1387.0353    453.57644    395.72062   -274.67422    37599.264 
   81200    298.59934   -1418.6297    448.65147     373.1343   -5.8956752    37599.264 
   81300    292.46848   -1403.0494    431.43623    343.92242   -258.41407    37599.264 
   81400    302.51923   -1422.6539    433.44637    371.53674    48.535031    37599.264 
   81500    299.97585   -1383.3152    445.10131    411.09022    381.89269    37599.264 
   81600    312.92412    -1391.674    444.26697    460.13889    60.831523    37599.264 
   81700    301.57068   -1374.1924    445.87839    428.16369   -442.43871    37599.264 
   81800    297.99026   -1370.8363    430.63077    400.16726   -720.97665    37599.264 
   81900    304.56345   -1361.8393    461.15637    469.25637   -757.31576    37599.264 
   82000    299.45932   -1401.0082    448.36534     394.3378   -566.12891    37599.264 
   82100    295.72378   -1375.7005    415.73612    370.21373   -427.10133    37599.264 
   82200    301.29163   -1394.4105    461.88065    422.69266   -143.34132    37599.264 
   82300     304.4495   -1389.6826    448.82169    428.56579    -205.1165    37599.264 
   82400     292.0003   -1437.2952    468.87304    345.00755   -53.501573    37599.264 
   82500    291.39719   -1381.3316    438.37528    367.76065    243.34871    37599.264 
   82600    300.30057   -1384.0653    437.22288    403.92229    98.692996    37599.264 
   82700    293.58536   -1363.0356    456.05133    413.57516    724.88434    37599.264 
   82800    294.86655   -1385.8645     439.3504    379.80808    439.37215    37599.264 
   82900    296.29676   -1388.7242    445.50764    389.53881    278.70663    37599.264 
   83000    308.12883   -1376.8386    453.20689    462.34477    303.54721    37599.264 
   83100    302.79694   -1385.3904      445.211    421.81405     198.3692    37599.264 
   83200    305.67409     -1396.58    439.85059    418.20558     81.90678    37599.264 
   83300    295.48601   -1400.8568    435.59361    363.84543   -544.32514    37599.264 
   83400    307.38617   -1433.7854     457.2692     406.1198   -583.91302    37599.264 
   83500      303.557   -1428.6778    446.87957    383.61408    1.4764402    37599.264 
   83600    302.62033    -1440.795    444.46999    364.87411   -352.96949    37599.264 
   83700    298.51859   -1429.8168    439.37116    352.30359    14.646566    37599.264 
   83800    298.03817   -1416.4688    455.53147    379.65102    86.275461    37599.264 
   83900    293.56834   -1466.5951    453.22154    307.10928    345.41921    37599.264 
   84000    305.22439    -1452.989    437.18051    357.10373    39.323125    37599.264 
   84100    295.95582   -1459.6357    479.47848    351.06454   -299.08124    37599.264 
   84200    312.50754   -1453.4704    449.31442    401.51613    165.63611    37599.264 
   84300    293.99492   -1461.2799    447.85611    308.97781    592.85439    37599.264 
   84400    293.97136   -1496.6603    436.05026    261.68558    278.25215    37599.264 
   84500    303.38297   -1445.6334    438.29394    357.28997    238.61282    37599.264 
   84600    303.23582   -1466.1409    460.78446    358.61113   -124.55332    37599.264 
   84700    299.68683   -1477.2289    447.20294    317.97812    346.31205    37599.264 
   84800    300.53315   -1554.7815     422.7083    219.73764     107.2311    37599.264 
   84900    296.69531   -1503.3864    463.49039    294.65207   -144.75898    37599.264 
   85000    303.81482   -1503.1536    443.80598    307.22433    22.871203    37599.264 
   85100     293.1171   -1475.6842    452.53185    295.30078    82.394439    37599.264 
   85200    296.20213   -1505.4362    451.64522    278.53881    84.366129    37599.264 
   85300    308.62668   -1433.6103    458.08817    412.69373   -508.95429    37599.264 
   85400    302.77793    -1490.898    481.36306    352.37305    212.11688    37599.264 
   85500    296.75013   -1485.4648    443.28717    292.61704   -520.55333    37599.264 
   85600    292.32611   -1462.5302    453.05109    305.41612    25.316984    37599.264 
   85700    294.96388   -1479.4264    444.90257    292.23618   -522.55777    37599.264 
   85800    298.28553   -1442.5036    453.08676     352.2841   -897.77638    37599.264 
   85900    305.18926   -1416.4432    464.80763    421.11869   -366.16731    37599.264 
   86000    303.11054     -1448.61      442.161    356.95509   -670.60575    37599.264 
   86100    297.75836   -1459.9989     453.8693    333.20013   -433.22868    37599.264 
   86200    290.46271   -1475.4524    437.81617    268.87738   -513.42112    37599.264 
   86300    295.86009   -1432.9809     464.7517    362.56203   -310.30697    37599.264 
   86400    304.40388   -1425.6305    448.81784    392.40895     140.0608    37599.264 
   86500     297.2659   -1430.8815    486.09149    392.32463    -246.4428    37599.264 
   86600    300.01361   -1396.6671    441.05158    393.85843    228.55144    37599.264 
   86700    291.87888   -1424.8498     428.5682    316.60195   -9.6194839    37599.264 
   86800    304.05565   -1482.1857    464.28517    349.75463    163.14477    37599.264 
   86900    299.59829   -1464.9701    442.00947    324.64517    529.02293    37599.264 
   87000    305.87625   -1421.8915    448.45268    402.40549    615.31852    37599.264 
   87100    310.38985   -1449.2315    471.70967    418.62482    233.35296    37599.264 
   87200    295.22323   -1420.9327    465.44222    372.43611    74.576604    37599.264 
   87300    306.96457   -1401.0203    445.95756    425.67684   -26.592549    37599.264 
   87400    294.97388    -1422.061    437.74547    342.48947   -362.82339    37599.264 
   87500    300.64739   -1440.2118    467.42448    379.53733   -287.31304    37599.264 
   87600    295.99536     -1452.49     454.6402    333.54988   -189.46671    37599.264 
   87700    293.64286   -1408.1829    450.48291    363.11802   -421.68821    37599.264 
   87800    308.19533   -1391.9125    449.87838    444.24152    196.81609    37599.264 
   87900    293.80692   -1427.6095    440.13127    334.07778   -156.80479    37599.264 
[...]
  984200    303.46061   -1494.5096    499.75866    370.22775    233.07341    37599.264 
  984300    297.11995   -1508.5674    484.96269    312.85342    359.89461    37599.264 
  984400    301.19826   -1464.3692    487.01849    377.45179     263.7833    37599.264 
  984500     292.3973   -1471.3217    487.00161    330.89534    616.35502    37599.264 
  984600    298.89682   -1445.0484    488.97873    388.38088    22.867692    37599.264 
  984700    291.14751   -1465.5786     478.3263    322.34153   -73.653792    37599.264 
  984800    291.74582   -1422.8687    482.89913    372.31543    261.68189    37599.264 
  984900    307.65359    -1484.015    478.59737     378.4213    620.95398    37599.264 
  985000     309.2375   -1490.0933    478.41517    379.28532     505.5175    37599.264 
  985100    301.08979   -1514.6801    481.93115    321.56563    388.50598    37599.264 
  985200    300.32762    -1475.455    510.65008    386.08147    502.62918    37599.264 
  985300    300.27608   -1484.1049    453.56371    320.11337   -92.468684    37599.264 
  985400    296.27941   -1520.5953    478.29099    290.37303   -364.85429    37599.264 
  985500    303.63496   -1531.8202    478.89308    312.83585   -2.3391513    37599.264 
  985600    299.19048   -1521.0161    491.31652    316.07185    35.631622    37599.264 
  985700    290.50928   -1496.5865    466.55521    276.69172    -279.9324    37599.264 
  985800    301.58556   -1483.7115    503.43364    376.26682    278.73887    37599.264 
  985900    301.86594   -1512.9765    464.37811     309.2074   -371.51425    37599.264 
  986000    298.09121   -1543.7034    460.78101    257.90452   -316.94163    37599.264 
  986100    303.76904    -1493.991    458.49394    330.86897   -522.28546    37599.264 
  986200    298.09552   -1544.3026    440.09817     236.6419   -36.004227    37599.264 
  986300    298.27757   -1501.5125    456.60801    296.76067    4.7822064    37599.264 
  986400    304.76438   -1523.9475    490.03053    336.92612    137.11638    37599.264 
  986500    289.35945   -1535.2383    470.02398     236.3368    232.97861    37599.264 
  986600    289.70419   -1518.3532    462.31261    247.06117    -326.5717    37599.264 
  986700    308.94341   -1457.1987    473.41245    405.85432   -445.43317    37599.264 
  986800    300.05311   -1456.8418    513.86982    406.67966   -332.02388    37599.264 
  986900    297.90033   -1506.5679    474.95658    308.35697   -134.89052    37599.264 
  987000    298.70493   -1454.1236    493.92874    383.39254   -92.636479    37599.264 
  987100    310.95983   -1489.2867    471.75717    381.18099   -597.05764    37599.264 
  987200    297.12433     -1475.01    474.41154     335.8794   -108.04265    37599.264 
  987300     296.9255   -1470.2713    468.78638    334.09857   -718.81036    37599.264 
  987400    292.30498   -1433.2922     489.2526    370.76057   -958.65131    37599.264 
  987500    295.09499   -1461.4949    503.98852    369.84336   -918.03081    37599.264 
  987600    298.22293   -1478.1123    469.32222     332.6293    -584.2641    37599.264 
  987700    310.36347   -1464.5717    476.58503    408.04138    -353.7372    37599.264 
  987800    301.09541   -1476.6282    485.40316    363.11484   -621.92811    37599.264 
  987900    298.00277   -1484.0191    474.41095    330.82092   -985.81906    37599.264 
  988000    309.33694   -1535.3197    454.77412    310.86509   -507.82882    37599.264 
  988100    304.86556   -1486.4954    504.61409    389.41688   -516.47463    37599.264 
  988200    295.40153     -1509.42    437.74181     257.0504   -598.14747    37599.264 
  988300    292.27222   -1485.6636    506.21737    335.20663   -324.53053    37599.264 
  988400    313.93248   -1524.8476    507.11409    394.34806    150.69598    37599.264 
  988500    300.07989   -1517.0533    475.94016    308.65896    178.10855    37599.264 
  988600    307.18891   -1527.4862    460.99444    315.25694    -209.9987    37599.264 
  988700    292.21461   -1526.6427      452.193    239.94394    29.940017    37599.264 
  988800    306.70269    -1539.736    475.84379    315.66949    408.23049    37599.264 
  988900    304.01278   -1500.3935    482.39532    349.46422    689.00777    37599.264 
  989000    305.62592   -1510.7469    484.92228    348.89371    202.79116    37599.264 
  989100    295.15036   -1538.5224    478.49106    267.56745   -285.66942    37599.264 
  989200    308.34031   -1516.2653    471.05416    341.71661   -90.703092    37599.264 
  989300    292.83595    -1520.645    471.97801    268.52149   -637.49988    37599.264 
  989400    308.02262   -1489.8306    475.35582    371.02404   -1034.8579    37599.264 
  989500    294.01707   -1472.7612    477.90591     327.6459   -525.80015    37599.264 
  989600    293.83435   -1509.4742    480.43077    292.63591   -192.16753    37599.264 
  989700     295.4013   -1476.0846    486.70457    339.34754    429.88358    37599.264 
  989800    292.25319    -1544.742    491.67742     261.5026    248.13472    37599.264 
  989900     310.5069   -1569.4013    483.55269    310.82454    757.87992    37599.264 
  990000    300.86861    -1560.573    465.81567    258.56238    559.34896    37599.264 
  990100    291.67457   -1571.9702    475.30171    215.29609    179.43808    37599.264 
  990200    294.27827    -1534.406    477.05554    266.32566    251.46095    37599.264 
  990300    297.09981   -1529.6177    463.86118      270.611    122.28008    37599.264 
  990400    297.05399   -1538.1652    472.87665    270.87288    166.48162    37599.264 
  990500    297.72932    -1476.349    508.96702    371.81712   -501.62396    37599.264 
  990600    294.05081   -1459.3605    459.39627    322.68875   -684.13194    37599.264 
  990700    290.22363   -1487.8856    492.49022    310.04284   -9.4954249    37599.264 
  990800    298.40747   -1461.9786    471.38885    351.65971    -255.5028    37599.264 
  990900    288.89876   -1504.3684    481.61574    276.72621   -289.59864    37599.264 
  991000    291.18152   -1504.0029    522.71803    328.46193   -108.47627    37599.264 
  991100    312.90817   -1480.7729      466.229    392.93031   -297.95867    37599.264 
  991200    287.38027   -1485.8818    476.14436    282.91123    386.81006    37599.264 
  991300    300.71833   -1536.4169    484.41293    300.63984   -389.52789    37599.264 
  991400    292.38692   -1526.9523    488.14158    276.35798   -258.23664    37599.264 
  991500    301.48101   -1561.4658    473.82628    268.43488    37.813061    37599.264 
  991600    301.19383   -1553.6807    468.72634    269.82824    -7.910733    37599.264 
  991700    288.88917   -1524.0762    481.05972    256.41923     27.46566    37599.264 
  991800    296.89407   -1534.5645    473.43839    274.31603    350.04758    37599.264 
  991900    304.78735   -1516.0253    475.48977     330.4109    271.80036    37599.264 
  992000    300.97705   -1496.7337    469.46789    326.54169    561.46284    37599.264 
  992100    296.44243   -1501.5584    489.00104    320.85323      203.436    37599.264 
  992200    301.39767   -1502.7486    475.05341    328.00429     26.70862    37599.264 
  992300     302.5861   -1481.2374      469.324     349.1317   -169.57934    37599.264 
  992400    295.59591   -1497.6211    491.48617    323.46798     -345.865    37599.264 
  992500    306.38944   -1506.0279    491.87001     363.9948   -132.07515    37599.264 
  992600    304.57188   -1502.0188    471.57307    339.53152   -293.39206    37599.264 
  992700    297.00155   -1531.6625    484.50823    288.77127   -71.380563    37599.264 
  992800    296.18263    -1562.833    474.62281    244.03186   -242.84229    37599.264 
  992900    287.92171   -1546.8751    460.94675    209.15572   -402.84406    37599.264 
  993000    314.27687   -1525.9191    491.79975     379.5113     324.5674    37599.264 
  993100    293.73503   -1511.3475    503.76579     313.6509   -107.62224    37599.264 
  993200    300.35832   -1495.2935    481.82608    337.55696   -241.96635    37599.264 
  993300    299.75532   -1516.2632    472.78791    304.83688   -234.18652    37599.264 
  993400    309.39619   -1492.7932    478.20141    377.08544   -28.547789    37599.264 
  993500    296.27246   -1533.7097    486.38841    285.32476    79.358975    37599.264 
  993600    295.95516    -1519.253    479.85339    291.81923    461.38209    37599.264 
  993700    294.78792   -1502.2167    485.00442    308.75628    79.452144    37599.264 
  993800    289.73014   -1455.4968    509.37853    357.10016   -248.66004    37599.264 
  993900    288.64767   -1496.0219    469.60325    271.93083    41.346235    37599.264 
  994000    301.01804   -1503.0429     467.4516    318.40065   -94.501321    37599.264 
  994100    298.29985   -1484.7839    504.92785    361.90935   -696.83144    37599.264 
  994200    294.36296   -1450.4311    473.81839     347.4444   -434.83808    37599.264 
  994300    300.69801   -1476.2873    512.02163    388.28675    145.21023    37599.264 
  994400    294.18216   -1516.1456    481.23498    288.33315    57.623881    37599.264 
  994500    301.66197   -1496.3133    484.69602    345.27105   -182.50277    37599.264 
  994600    295.36784   -1488.1149    495.34689    335.80904    96.317628    37599.264 
  994700    299.91095   -1509.3218    450.44558    290.13595   0.35993207    37599.264 
  994800    296.99818   -1557.5978    490.93682    269.24947   -502.12337    37599.264 
  994900    301.90289   -1516.1879    464.53367    306.31774      -272.16    37599.264 
  995000    296.31987   -1463.1719    467.72382    337.41122   -187.53823    37599.264 
  995100    303.16831   -1526.8688    484.22331    321.01844   -206.99053    37599.264 
  995200    299.87158   -1485.0352    466.51499    330.31492    34.391523    37599.264 
  995300    299.18653   -1509.8169     495.4418    331.37861    407.83338    37599.264 
  995400    299.58309   -1489.5479    499.27198    357.26152   -199.79514    37599.264 
  995500    297.65766   -1449.6588    499.47349     388.6914    433.98013    37599.264 
  995600    296.40975   -1458.1331    479.42134    354.55181    489.03353    37599.264 
  995700    296.20292   -1471.2058     512.2834    373.41089    651.82575    37599.264 
  995800    299.36826   -1480.8976    491.52247    357.19595    889.53541    37599.264 
  995900    305.38363   -1476.6808     480.6983    377.64601    893.66349    37599.264 
  996000    302.12082   -1498.8195     492.9972    353.12994    908.79335    37599.264 
  996100    306.82365    -1480.791    476.27759    375.59235     498.9641    37599.264 
  996200    298.15594   -1462.4705    522.35528    401.00283    115.89279    37599.264 
  996300    291.15648   -1504.5607    474.85018    279.92368    450.09968    37599.264 
  996400    284.92519    -1480.447    490.68381    291.84234    563.61876    37599.264 
  996500    301.99978   -1498.2319    503.45326    363.62913    603.99641    37599.264 
  996600    313.02426   -1468.4807    486.37196    425.88764    1087.5925    37599.264 
  996700    303.30953   -1467.0702    499.23518    396.46409    532.54051    37599.264 
  996800    297.00096   -1482.6219    496.35194    349.65293    507.74495    37599.264 
  996900    290.84643   -1523.0727    477.17616    262.34304    592.38976    37599.264 
  997000    297.33988   -1496.1793     501.3352    342.60328    602.99723    37599.264 
  997100    306.59155   -1549.0962    501.10773     331.0733    764.71858    37599.264 
  997200    298.67149   -1522.9377    510.26118    330.76044    501.83541    37599.264 
  997300    295.50326   -1470.3046    501.58993    360.47154    275.69178    37599.264 
  997400    300.33493   -1492.0218    469.34015    328.23758   -148.05611    37599.264 
  997500    301.81377   -1444.6315    498.39339    411.33302   -482.00849    37599.264 
  997600    296.38005   -1448.8899    514.45353    398.69367   -501.89437    37599.264 
  997700     296.4732   -1515.0649    484.85998    303.34406   -735.20856    37599.264 
  997800     297.5997   -1464.0368    500.23835    374.81764   -376.36103    37599.264 
  997900    297.46649   -1480.9883    480.79847    337.82707   -725.18491    37599.264 
  998000    306.03486   -1519.7626    488.95784    345.75297   -272.17608    37599.264 
  998100    307.63656   -1527.5707    481.09519    337.28678   -360.76227    37599.264 
  998200    295.19841   -1517.6489    484.39472    294.56077    88.155598    37599.264 
  998300    295.80437   -1514.3887    497.04915    313.20106    7.7647406    37599.264 
  998400    295.79309   -1547.6424    501.45746    284.30492    91.121539    37599.264 
  998500    297.04695    -1512.072    467.40851    291.46629   -143.21822    37599.264 
  998600    311.50433   -1505.5343    492.30215    387.92752   -148.43456    37599.264 
  998700    312.57959   -1498.3484    503.21568    410.86349    139.39685    37599.264 
  998800     295.3314   -1535.1446    446.48824    239.75679   -296.10783    37599.264 
  998900    305.93817   -1541.3673    503.40337    338.15896   -179.49563    37599.264 
  999000    296.31279    -1500.873    472.30672    304.26114   -496.45432    37599.264 
  999100    299.71894   -1535.5952    473.40563    285.95888    133.31499    37599.264 
  999200    296.93037    -1548.363    482.75623    269.99861    384.76208    37599.264 
  999300    291.18334   -1513.5439    478.07008    274.28115    148.17077    37599.264 
  999400    297.19022   -1517.4018    480.11556    299.48796    182.55014    37599.264 
  999500    304.97764   -1545.5253    512.67609    338.95315    479.72742    37599.264 
  999600      293.945   -1560.5876    477.57131    239.16081     363.9258    37599.264 
  999700    297.65152   -1562.7971    475.49228    251.54432    426.36577    37599.264 
  999800    309.87896   -1524.6401    479.69045    348.89905    150.31393    37599.264 
  999900    301.09899   -1499.3827    481.33172    336.30504    273.54268    37599.264 
 1000000    297.40461   -1524.6508    505.06024    318.14801   -276.34362    37599.264 
 1000100    312.90324    -1534.904    485.34211    357.89016   -19.372416    37599.264 
 1000200    300.94437    -1543.725    488.37292    298.30843    156.24186    37599.264 
 1000300     294.3714   -1495.3776    470.98671    299.70421   -341.37681    37599.264 
 1000400    303.37264   -1513.3486    497.05713    348.29153   -85.348622    37599.264 
 1000500    299.46922   -1514.5675    481.98699    314.44467   -214.25343    37599.264 
 1000600    304.29474   -1526.7925    475.14933    317.08746   -401.17442    37599.264 
 1000700    302.49817   -1545.2679    464.28523    279.66688    23.255333    37599.264 
 1000800    299.39979   -1547.5178    479.18408    278.37919    49.110505    37599.264 
 1000900    290.19771   -1594.3294    468.80699    179.79922     656.4456    37599.264 
 1001000    300.80262   -1590.8029    455.05938    217.27941    683.04698    37599.264 
 1001100    308.11681   -1547.5257    473.75025    312.14702    329.09738    37599.264 
 1001200     315.8168   -1548.0719    482.94597    355.43137    272.86694    37599.264 
 1001300     298.6928   -1538.5851    469.42949    274.37723   -373.49027    37599.264 
 1001400    298.95514   -1496.6784    467.62996    315.66445   -159.74294    37599.264 
 1001500    303.73634    -1548.077    474.97028    293.11223   -260.56275    37599.264 
 1001600    295.34817   -1533.8781    459.93169    254.54216    113.82263    37599.264 
 1001700    306.97438   -1544.3168    479.18569    315.65263   -97.254198    37599.264 
 1001800    304.78287   -1524.8668    478.45364    324.51304   -271.73225    37599.264 
 1001900    290.90093   -1522.5669    481.93989    267.85774   -849.64452    37599.264 
 1002000    291.80726   -1538.9073    492.31528    265.96937   -68.464868    37599.264 
 1002100    315.32292   -1539.5785    464.61904    343.37638   -63.769257    37599.264 
 1002200    301.47379   -1566.6713    475.46105    264.83164   -242.80474    37599.264 
 1002300    297.21488   -1500.7191    483.01753    319.18356   -286.40405    37599.264 
 1002400    305.61803   -1565.3874    482.10275    291.39818   -103.69542    37599.264 
 1002500    285.50211   -1555.4064     455.9926    184.78673   -270.74183    37599.264 
 1002600    307.47283   -1525.4071    460.03848    317.65721   -629.91093    37599.264 
 1002700    308.26226   -1525.5119     480.5074    341.57226   -170.33457    37599.264 
 1002800    304.86257   -1533.5464    474.00295    311.74131    112.86558    37599.264 
 1002900    307.59822   -1553.8388      480.942    310.69301   0.60914882    37599.264 
 1003000     304.3931   -1607.8607    475.95105    237.26341    166.63513    37599.264 
 1003100    309.76903   -1526.8484    480.64808    347.15388     379.2044    37599.264 
 1003200    292.15911   -1529.6238    495.06186    279.58213    311.57926    37599.264 
 1003300    297.06795   -1523.6447    480.32643    292.90596   -319.54759    37599.264 
 1003400    284.15563   -1523.9047    481.79422    236.03353   -195.42662    37599.264 
 1003500    302.81456   -1535.2858    492.31188     319.0988    351.75973    37599.264 
 1003600    296.33746   -1577.6901    467.29957    222.54792    627.76405    37599.264 
 1003700    300.99455   -1520.7959    491.62309    324.71343    330.39951    37599.264 
 1003800    294.19457   -1505.7276     488.5101    306.08216    295.32608    37599.264 
 1003900    307.58866   -1513.6438    479.58884    349.49191   -348.21447    37599.264 
 1004000    289.38453   -1518.7646    495.03481    277.93412   -581.21801    37599.264 
 1004100    289.83695   -1526.9591    494.39597     271.1357   -722.64155    37599.264 
 1004200    300.87157   -1508.5075    453.20188    298.02744   -558.18369    37599.264 
 1004300    297.08936   -1538.8507    490.36826    287.83814   -632.19376    37599.264 
 1004400    313.18269   -1535.1248    486.35421    359.93838   -711.21298    37599.264 
 1004500    296.56442   -1491.9065    488.03644    330.08927    281.74542    37599.264 
 1004600    304.93073   -1500.1925    483.41907    354.81796   -169.18829    37599.264 
 1004700    309.72915    -1526.149     492.4161    359.44198    13.422499    37599.264 
 1004800    301.04298   -1489.9064    495.46415    359.66187   -494.06639    37599.264 
 1004849    303.22909   -1475.0131    483.63689    372.56111   -218.00703    37599.264 
Loop time of 593.444 on 32 procs for 1000000 steps with 1510 atoms

Performance: 145.591 ns/day, 0.165 hours/ns, 1685.079 timesteps/s
100.0% CPU use with 32 MPI tasks x no OpenMP threads

MPI task timing breakdown:
Section |  min time  |  avg time  |  max time  |%varavg| %total
---------------------------------------------------------------
Pair    | 244.61     | 272.96     | 296.19     |  83.3 | 46.00
Bond    | 1.4125     | 1.5327     | 1.6606     |   4.8 |  0.26
Neigh   | 38.717     | 38.792     | 38.852     |   0.7 |  6.54
Comm    | 244.89     | 268.01     | 296.12     |  83.7 | 45.16
Output  | 0.39262    | 0.41059    | 0.86479    |  12.7 |  0.07
Modify  | 8.3826     | 8.6321     | 8.9718     |   5.6 |  1.45
Other   |            | 3.114      |            |       |  0.52

Nlocal:        47.1875 ave          72 max          14 min
Histogram: 1 3 3 3 2 4 5 2 4 5
Nghost:        1998.03 ave        2088 max        1909 min
Histogram: 3 2 4 5 1 3 7 1 4 2
Neighs:        5380.91 ave        9547 max         839 min
Histogram: 3 1 4 5 1 4 4 5 1 4

Total # of neighbors = 172189
Ave neighs/atom = 114.03245
Ave special neighs/atom = 2.0185430
Neighbor list builds = 49686
Dangerous builds = 0

# Output the system volume
variable v equal vol
print 'The system volume is $v'
The system volume is 37599.2635982444

# Outputs
variable A equal xhi-xlo
variable B equal yhi-ylo
variable C equal zhi-zlo
variable D equal xy
variable E equal xz
variable F equal yz
print 'Lattice vectors'
Lattice vectors
print '$A 0 0'
33.501154960773 0 0
print '$D $B 0'
0 33.501154960773 0
print '$E $F $C'
0 0 33.501154960773
Total wall time: 0:09:57
