LAMMPS data file
 1505 atoms
 1004 bonds
 506 angles
 0 dihedrals
 0 impropers
 5 atom types
 3 bond types
 2 angle types
 0 dihedral types
 1 improper types
 0 15 xlo xhi
 0 15 ylo yhi
 0 15 zlo zhi
 0 0 0 xy xz yz

# Atom types
#
# 1 F_
# 2 C_3
# 3 H_
# 4 H__HB
# 5 O_3

# Bond Coeffs
#
# 1 F_*C_3
# 2 C_3*H_
# 3 O_3*H__HB

# Angle Coeffs
#
# 1 C_3
# 2 O_3

# Dihedral Coeffs
#

# Inversion Coeffs
#
# 1 1

 Masses

 1 19
 2 12.01
 3 1.01
 4 1.01
 5 16

 Atoms # full

1 1 1 0 12.7896949833887 2.37803700852975 13.795859303481
2 1 1 0 12.7693038437285 0.170971079836873 13.7637925321059
3 1 2 0 12.5800033633746 1.28879027041054 12.9847806032351
4 1 1 0 13.5574311300898 1.26960620184115 12.019037540942
5 1 3 0 11.2343598607131 1.37726715642565 12.3481254262469
6 2 4 0 7.61438138477504 2.5083350510709 9.92057526251301
7 2 5 0 8.57438138477504 2.5083350510709 9.92057526251301
8 2 4 0 8.81438138477504 1.5783350510709 9.92057526251301
9 3 4 0 0.161963563151658 1.70873388106935 6.96785027277656
10 3 5 0 1.12196356315166 1.70873388106935 6.96785027277656
11 3 4 0 1.36196356315166 0.778733881069347 6.96785027277656
12 4 4 0 10.0872226191871 14.8380489721335 0.905733638210222
13 4 5 0 11.0472226191871 14.8380489721335 0.905733638210222
14 4 4 0 11.2872226191871 13.9080489721335 0.905733638210222
15 5 4 0 11.5014966220781 0.477335061123595 6.11025004531257
16 5 5 0 12.4614966220781 0.477335061123595 6.11025004531257
17 5 4 0 12.7014966220781 -0.452664938876405 6.11025004531257
18 6 4 0 12.265886457609 4.18678607134148 14.3581548775546
19 6 5 0 13.225886457609 4.18678607134148 14.3581548775546
20 6 4 0 13.465886457609 3.25678607134148 14.3581548775546
21 7 4 0 0.137093782396987 14.2541685867496 11.3328327296767
22 7 5 0 1.09709378239699 14.2541685867496 11.3328327296767
23 7 4 0 1.33709378239699 13.3241685867496 11.3328327296767
24 8 4 0 8.21568792147562 12.8646382693574 0.752898019272834
25 8 5 0 9.17568792147562 12.8646382693574 0.752898019272834
26 8 4 0 9.41568792147562 11.9346382693574 0.752898019272834
27 9 4 0 6.66225754117593 7.54136451211758 14.83643082669
28 9 5 0 7.62225754117593 7.54136451211758 14.83643082669
29 9 4 0 7.86225754117593 6.61136451211758 14.83643082669
30 10 4 0 4.66837135769427 6.85940422973596 12.8237223916221
31 10 5 0 5.62837135769427 6.85940422973596 12.8237223916221
32 10 4 0 5.86837135769427 5.92940422973596 12.8237223916221
33 11 4 0 3.26543640389107 11.6929893886577 13.1295213662088
34 11 5 0 4.22543640389107 11.6929893886577 13.1295213662088
35 11 4 0 4.46543640389107 10.7629893886577 13.1295213662088
36 12 4 0 8.7680061945878 6.03563038091175 7.71031518699601
37 12 5 0 9.7280061945878 6.03563038091175 7.71031518699601
38 12 4 0 9.9680061945878 5.10563038091175 7.71031518699601
39 13 4 0 3.71217497784644 3.33484023035504 12.8612430836074
40 13 5 0 4.67217497784644 3.33484023035504 12.8612430836074
41 13 4 0 4.91217497784644 2.40484023035504 12.8612430836074
42 14 4 0 1.25679687291384 8.55618771555834 14.7449219995178
43 14 5 0 2.21679687291384 8.55618771555834 14.7449219995178
44 14 4 0 2.45679687291384 7.62618771555834 14.7449219995178
45 15 4 0 2.92357818150893 3.07514478959143 4.53000749694183
46 15 5 0 3.88357818150893 3.07514478959143 4.53000749694183
47 15 4 0 4.12357818150893 2.14514478959143 4.53000749694183
48 16 4 0 4.89099991668016 3.46203391714022 1.14428605302237
49 16 5 0 5.85099991668016 3.46203391714022 1.14428605302237
50 16 4 0 6.09099991668016 2.53203391714022 1.14428605302237
51 17 4 0 4.85904205285013 1.22450806590728 1.78030989831313
52 17 5 0 5.81904205285013 1.22450806590728 1.78030989831313
53 17 4 0 6.05904205285013 0.294508065907285 1.78030989831313
54 18 4 0 9.8175723936595 4.85686436685733 13.2280306925531
55 18 5 0 10.7775723936595 4.85686436685733 13.2280306925531
56 18 4 0 11.0175723936595 3.92686436685733 13.2280306925531
57 19 4 0 8.85331515848637 3.56299181742594 0.642829845892265
58 19 5 0 9.81331515848637 3.56299181742594 0.642829845892265
59 19 4 0 10.0533151584864 2.63299181742594 0.642829845892265
60 20 4 0 3.94097670723684 9.99613711185753 7.36897614318877
61 20 5 0 4.90097670723684 9.99613711185753 7.36897614318877
62 20 4 0 5.14097670723684 9.06613711185753 7.36897614318877
63 21 4 0 12.8919273025542 9.07982050365768 5.10399918188341
64 21 5 0 13.8519273025542 9.07982050365768 5.10399918188341
65 21 4 0 14.0919273025543 8.14982050365768 5.10399918188341
66 22 4 0 3.78877875206061 11.7288335079234 2.75694635231048
67 22 5 0 4.74877875206061 11.7288335079234 2.75694635231048
68 22 4 0 4.98877875206061 10.7988335079234 2.75694635231048
69 23 4 0 -0.684264146983623 8.79392072250135 3.74838545685634
70 23 5 0 0.275735853016376 8.79392072250135 3.74838545685634
71 23 4 0 0.515735853016376 7.86392072250135 3.74838545685634
72 24 4 0 -0.35766708271578 11.1823918884061 4.82546575600281
73 24 5 0 0.60233291728422 11.1823918884061 4.82546575600281
74 24 4 0 0.84233291728422 10.2523918884061 4.82546575600281
75 25 4 0 6.42920220547356 10.1904157483391 1.80051771691069
76 25 5 0 7.38920220547356 10.1904157483391 1.80051771691069
77 25 4 0 7.62920220547356 9.26041574833915 1.80051771691069
78 26 4 0 10.7562741315644 7.35250726965256 8.54396024253219
79 26 5 0 11.7162741315644 7.35250726965256 8.54396024253219
80 26 4 0 11.9562741315644 6.42250726965256 8.54396024253219
81 27 4 0 10.4832768060453 14.547304632552 3.70893150335178
82 27 5 0 11.4432768060453 14.547304632552 3.70893150335178
83 27 4 0 11.6832768060453 13.617304632552 3.70893150335178
84 28 4 0 4.61557285205461 1.06535973883234 2.62911308091134
85 28 5 0 5.57557285205461 1.06535973883234 2.62911308091134
86 28 4 0 5.81557285205461 0.13535973883234 2.62911308091134
87 29 4 0 10.1122846109513 6.46953702945262 4.57963407039642
88 29 5 0 11.0722846109513 6.46953702945262 4.57963407039642
89 29 4 0 11.3122846109513 5.53953702945262 4.57963407039642
90 30 4 0 10.1835683283582 4.02023325831629 5.92434481834061
91 30 5 0 11.1435683283582 4.02023325831629 5.92434481834061
92 30 4 0 11.3835683283582 3.09023325831629 5.92434481834061
93 31 4 0 13.5524378441926 4.72864467225969 1.73056603060104
94 31 5 0 14.5124378441926 4.72864467225969 1.73056603060104
95 31 4 0 14.7524378441926 3.79864467225969 1.73056603060104
96 32 4 0 1.00603385173716 10.3118863379955 5.83799690008163
97 32 5 0 1.96603385173716 10.3118863379955 5.83799690008163
98 32 4 0 2.20603385173716 9.38188633799553 5.83799690008163
99 33 4 0 13.5123954601306 3.97560848779045 3.31401740200818
100 33 5 0 14.4723954601306 3.97560848779045 3.31401740200818
101 33 4 0 14.7123954601306 3.04560848779045 3.31401740200818
102 34 4 0 13.5880658151302 5.99569005001336 5.41909168590792
103 34 5 0 14.5480658151302 5.99569005001336 5.41909168590792
104 34 4 0 14.7880658151302 5.06569005001336 5.41909168590792
105 35 4 0 9.26504422372207 6.84885078500025 6.01563547854312
106 35 5 0 10.2250442237221 6.84885078500025 6.01563547854312
107 35 4 0 10.4650442237221 5.91885078500025 6.01563547854312
108 36 4 0 6.59937531963922 13.303892376544 2.09112339187413
109 36 5 0 7.55937531963922 13.303892376544 2.09112339187413
110 36 4 0 7.79937531963922 12.373892376544 2.09112339187413
111 37 4 0 5.18821365360171 2.12239116820507 10.1297305722255
112 37 5 0 6.14821365360171 2.12239116820507 10.1297305722255
113 37 4 0 6.38821365360171 1.19239116820507 10.1297305722255
114 38 4 0 11.0496464632172 4.27122708567418 10.7603184320033
115 38 5 0 12.0096464632172 4.27122708567418 10.7603184320033
116 38 4 0 12.2496464632172 3.34122708567418 10.7603184320033
117 39 4 0 13.990133507615 1.40228092595004 2.42167606833391
118 39 5 0 14.950133507615 1.40228092595004 2.42167606833391
119 39 4 0 15.190133507615 0.472280925950035 2.42167606833391
120 40 4 0 7.23887622982264 4.84720717108808 5.70721164811403
121 40 5 0 8.19887622982264 4.84720717108808 5.70721164811403
122 40 4 0 8.43887622982264 3.91720717108808 5.70721164811403
123 41 4 0 8.92569024159573 3.11253010685556 14.9674844916444
124 41 5 0 9.88569024159573 3.11253010685556 14.9674844916444
125 41 4 0 10.1256902415957 2.18253010685556 14.9674844916444
126 42 4 0 7.39948409071192 11.2599644674361 3.79648856702261
127 42 5 0 8.35948409071192 11.2599644674361 3.79648856702261
128 42 4 0 8.59948409071192 10.3299644674361 3.79648856702261
129 43 4 0 11.7809425054304 6.22250206227414 14.9493790848646
130 43 5 0 12.7409425054304 6.22250206227414 14.9493790848646
131 43 4 0 12.9809425054304 5.29250206227414 14.9493790848646
132 44 4 0 11.8079347586911 3.09555325348862 13.6461224744562
133 44 5 0 12.7679347586911 3.09555325348862 13.6461224744562
134 44 4 0 13.0079347586911 2.16555325348862 13.6461224744562
135 45 4 0 -0.453257170300931 14.6210804120079 0.985547569580376
136 45 5 0 0.506742829699069 14.6210804120079 0.985547569580376
137 45 4 0 0.746742829699069 13.6910804120079 0.985547569580376
138 46 4 0 7.71468645005487 9.86937394406647 12.0302571903449
139 46 5 0 8.67468645005487 9.86937394406647 12.0302571903449
140 46 4 0 8.91468645005487 8.93937394406647 12.0302571903449
141 47 4 0 11.2292683012504 9.80440746800974 9.54511284828186
142 47 5 0 12.1892683012504 9.80440746800974 9.54511284828186
143 47 4 0 12.4292683012504 8.87440746800974 9.54511284828186
144 48 4 0 12.5030292214081 9.78906675864942 5.70685556042008
145 48 5 0 13.4630292214081 9.78906675864942 5.70685556042008
146 48 4 0 13.7030292214081 8.85906675864942 5.70685556042008
147 49 4 0 8.74639141417108 8.61252844840288 5.60538159683347
148 49 5 0 9.70639141417108 8.61252844840288 5.60538159683347
149 49 4 0 9.94639141417109 7.68252844840288 5.60538159683347
150 50 4 0 1.70902727331966 2.94558223028667 1.20640018489212
151 50 5 0 2.66902727331966 2.94558223028667 1.20640018489212
152 50 4 0 2.90902727331966 2.01558223028667 1.20640018489212
153 51 4 0 6.38718280635774 14.6640976487566 13.8391393690836
154 51 5 0 7.34718280635774 14.6640976487566 13.8391393690836
155 51 4 0 7.58718280635774 13.7340976487566 13.8391393690836
156 52 4 0 3.53023581599817 11.7515186503902 2.74242086336017
157 52 5 0 4.49023581599817 11.7515186503902 2.74242086336017
158 52 4 0 4.73023581599817 10.8215186503902 2.74242086336017
159 53 4 0 3.98595458289608 7.91936134494841 11.2697978212964
160 53 5 0 4.94595458289608 7.91936134494841 11.2697978212964
161 53 4 0 5.18595458289608 6.98936134494841 11.2697978212964
162 54 4 0 4.36435032097623 12.1811632094346 4.91743594408035
163 54 5 0 5.32435032097623 12.1811632094346 4.91743594408035
164 54 4 0 5.56435032097623 11.2511632094346 4.91743594408035
165 55 4 0 9.11161158277653 2.50864399405196 3.03216920234263
166 55 5 0 10.0716115827765 2.50864399405196 3.03216920234263
167 55 4 0 10.3116115827765 1.57864399405196 3.03216920234263
168 56 4 0 10.5126073483564 3.04968898807652 4.94944498990662
169 56 5 0 11.4726073483564 3.04968898807652 4.94944498990662
170 56 4 0 11.7126073483564 2.11968898807652 4.94944498990662
171 57 4 0 1.84110716960393 5.54964911233634 11.3817826076411
172 57 5 0 2.80110716960393 5.54964911233634 11.3817826076411
173 57 4 0 3.04110716960393 4.61964911233634 11.3817826076411
174 58 4 0 9.45461348790675 2.30793857173063 14.5100097544491
175 58 5 0 10.4146134879068 2.30793857173063 14.5100097544491
176 58 4 0 10.6546134879068 1.37793857173063 14.5100097544491
177 59 4 0 5.64452954728156 5.34426316543482 2.50838548061438
178 59 5 0 6.60452954728156 5.34426316543482 2.50838548061438
179 59 4 0 6.84452954728156 4.41426316543482 2.50838548061438
180 60 4 0 8.4063944352977 11.4854772637505 6.24223368242383
181 60 5 0 9.3663944352977 11.4854772637505 6.24223368242383
182 60 4 0 9.6063944352977 10.5554772637505 6.24223368242383
183 61 4 0 12.8724177384004 13.4815583358891 14.4838806975167
184 61 5 0 13.8324177384004 13.4815583358891 14.4838806975167
185 61 4 0 14.0724177384004 12.5515583358891 14.4838806975167
186 62 4 0 -0.319104698281735 3.55675385141745 13.2984661718365
187 62 5 0 0.640895301718265 3.55675385141745 13.2984661718365
188 62 4 0 0.880895301718265 2.62675385141745 13.2984661718365
189 63 4 0 8.34647127354518 11.2926809808146 9.80838529765606
190 63 5 0 9.30647127354518 11.2926809808146 9.80838529765606
191 63 4 0 9.54647127354518 10.3626809808146 9.80838529765606
192 64 4 0 8.46070230516605 12.8138248638157 6.40665887156501
193 64 5 0 9.42070230516605 12.8138248638157 6.40665887156501
194 64 4 0 9.66070230516605 11.8838248638157 6.40665887156501
195 65 4 0 13.7972813453246 14.6381268246938 14.1042475041468
196 65 5 0 14.7572813453246 14.6381268246938 14.1042475041468
197 65 4 0 14.9972813453246 13.7081268246938 14.1042475041468
198 66 4 0 13.7857977223769 10.071759651592 4.72420072532259
199 66 5 0 14.7457977223769 10.071759651592 4.72420072532259
200 66 4 0 14.9857977223769 9.141759651592 4.72420072532259
201 67 4 0 8.86064880338497 2.49844534130767 3.30618631909601
202 67 5 0 9.82064880338497 2.49844534130767 3.30618631909601
203 67 4 0 10.060648803385 1.56844534130767 3.30618631909601
204 68 4 0 3.03739429495297 1.09718787874095 1.25313406228088
205 68 5 0 3.99739429495297 1.09718787874095 1.25313406228088
206 68 4 0 4.23739429495297 0.167187878740951 1.25313406228088
207 69 4 0 3.4037696504686 6.47325372597203 11.0341222013813
208 69 5 0 4.3637696504686 6.47325372597203 11.0341222013813
209 69 4 0 4.6037696504686 5.54325372597203 11.0341222013813
210 70 4 0 13.4442117546871 7.81639013247564 11.3150678342208
211 70 5 0 14.4042117546871 7.81639013247564 11.3150678342208
212 70 4 0 14.6442117546871 6.88639013247564 11.3150678342208
213 71 4 0 14.2555314853974 6.30515027133748 14.1542630747426
214 71 5 0 15.2155314853974 6.30515027133748 14.1542630747426
215 71 4 0 15.4555314853974 5.37515027133748 14.1542630747426
216 72 4 0 1.94498279292136 14.7263426151499 2.9747411236167
217 72 5 0 2.90498279292136 14.7263426151499 2.9747411236167
218 72 4 0 3.14498279292136 13.7963426151499 2.9747411236167
219 73 4 0 10.2354729494266 7.71600897697732 8.77409542095847
220 73 5 0 11.1954729494266 7.71600897697732 8.77409542095847
221 73 4 0 11.4354729494266 6.78600897697732 8.77409542095847
222 74 4 0 -0.0166032342519611 2.17865471419878 14.9006731063128
223 74 5 0 0.943396765748039 2.17865471419878 14.9006731063128
224 74 4 0 1.18339676574804 1.24865471419878 14.9006731063128
225 75 4 0 10.6093137936853 5.90375958517194 4.05350920278579
226 75 5 0 11.5693137936853 5.90375958517194 4.05350920278579
227 75 4 0 11.8093137936853 4.97375958517194 4.05350920278579
228 76 4 0 -0.171828533783555 12.918075706521 7.08521027932875
229 76 5 0 0.788171466216445 12.918075706521 7.08521027932875
230 76 4 0 1.02817146621644 11.988075706521 7.08521027932875
231 77 4 0 9.14768640344962 3.45137650886551 12.2829462785739
232 77 5 0 10.1076864034496 3.45137650886551 12.2829462785739
233 77 4 0 10.3476864034496 2.52137650886551 12.2829462785739
234 78 4 0 8.33872952775098 14.9634352307208 2.38541347556747
235 78 5 0 9.29872952775098 14.9634352307208 2.38541347556747
236 78 4 0 9.53872952775098 14.0334352307208 2.38541347556747
237 79 4 0 11.9624288978241 8.80660218926147 9.64274139376357
238 79 5 0 12.9224288978241 8.80660218926147 9.64274139376357
239 79 4 0 13.1624288978241 7.87660218926147 9.64274139376357
240 80 4 0 4.30277655643411 10.6190987913311 4.14157306426205
241 80 5 0 5.26277655643411 10.6190987913311 4.14157306426205
242 80 4 0 5.50277655643411 9.68909879133105 4.14157306426205
243 81 4 0 11.2504485253897 11.362184420405 14.0644663141575
244 81 5 0 12.2104485253897 11.362184420405 14.0644663141575
245 81 4 0 12.4504485253897 10.432184420405 14.0644663141575
246 82 4 0 6.61276403392665 14.1344922203012 4.19697579578497
247 82 5 0 7.57276403392665 14.1344922203012 4.19697579578497
248 82 4 0 7.81276403392665 13.2044922203012 4.19697579578497
249 83 4 0 -0.0360878377966583 1.22603224165738 11.1585003649816
250 83 5 0 0.923912162203342 1.22603224165738 11.1585003649816
251 83 4 0 1.16391216220334 0.296032241657376 11.1585003649816
252 84 4 0 13.7055503069144 9.06466487370431 6.91466337768361
253 84 5 0 14.6655503069144 9.06466487370431 6.91466337768361
254 84 4 0 14.9055503069144 8.13466487370432 6.91466337768361
255 85 4 0 8.1494642088376 3.24466791161336 14.9782102787867
256 85 5 0 9.1094642088376 3.24466791161336 14.9782102787867
257 85 4 0 9.3494642088376 2.31466791161336 14.9782102787867
258 86 4 0 3.93777000761591 14.3265394928772 11.091462126933
259 86 5 0 4.89777000761591 14.3265394928772 11.091462126933
260 86 4 0 5.13777000761591 13.3965394928772 11.091462126933
261 87 4 0 4.21211773806252 0.528653822084889 9.02558585163206
262 87 5 0 5.17211773806252 0.528653822084889 9.02558585163206
263 87 4 0 5.41211773806252 -0.401346177915111 9.02558585163206
264 88 4 0 9.78435160752386 3.74857405125164 14.6424939762801
265 88 5 0 10.7443516075239 3.74857405125164 14.6424939762801
266 88 4 0 10.9843516075239 2.81857405125163 14.6424939762801
267 89 4 0 12.1631715986598 9.14542064810172 4.96244384092279
268 89 5 0 13.1231715986598 9.14542064810172 4.96244384092279
269 89 4 0 13.3631715986598 8.21542064810172 4.96244384092279
270 90 4 0 1.67117434364744 15.2255151832383 12.4596418789588
271 90 5 0 2.63117434364744 15.2255151832383 12.4596418789588
272 90 4 0 2.87117434364744 14.2955151832383 12.4596418789588
273 91 4 0 -0.29766730338335 3.38462851866148 12.8577829815913
274 91 5 0 0.66233269661665 3.38462851866148 12.8577829815913
275 91 4 0 0.90233269661665 2.45462851866148 12.8577829815913
276 92 4 0 0.960577837396413 5.79634530045092 0.824200609931722
277 92 5 0 1.92057783739641 5.79634530045092 0.824200609931722
278 92 4 0 2.16057783739641 4.86634530045092 0.824200609931722
279 93 4 0 14.2424934175517 10.982448304249 10.8180230052676
280 93 5 0 15.2024934175517 10.982448304249 10.8180230052676
281 93 4 0 15.4424934175517 10.052448304249 10.8180230052676
282 94 4 0 3.15478649499826 2.42354944622144 6.52315018814988
283 94 5 0 4.11478649499826 2.42354944622144 6.52315018814988
284 94 4 0 4.35478649499826 1.49354944622144 6.52315018814988
285 95 4 0 8.91334120460786 4.14183169644326 7.87593793706037
286 95 5 0 9.87334120460786 4.14183169644326 7.87593793706037
287 95 4 0 10.1133412046079 3.21183169644326 7.87593793706037
288 96 4 0 0.0679942876752466 15.005331150433 9.87027897848748
289 96 5 0 1.02799428767525 15.005331150433 9.87027897848748
290 96 4 0 1.26799428767525 14.075331150433 9.87027897848748
291 97 4 0 9.43619513578713 13.2714868492354 3.79130460438319
292 97 5 0 10.3961951357871 13.2714868492354 3.79130460438319
293 97 4 0 10.6361951357871 12.3414868492354 3.79130460438319
294 98 4 0 11.2332177632209 0.91746438568458 4.13141232216731
295 98 5 0 12.1932177632209 0.91746438568458 4.13141232216731
296 98 4 0 12.4332177632209 -0.0125356143154204 4.13141232216731
297 99 4 0 12.4962810279988 4.15078465867788 5.52682145847939
298 99 5 0 13.4562810279988 4.15078465867788 5.52682145847939
299 99 4 0 13.6962810279988 3.22078465867788 5.52682145847939
300 100 4 0 6.03093755009584 3.30983461736701 6.68962628231384
301 100 5 0 6.99093755009584 3.30983461736701 6.68962628231384
302 100 4 0 7.23093755009584 2.37983461736701 6.68962628231384
303 101 4 0 6.65760575255379 12.0966853042506 5.39529399597086
304 101 5 0 7.61760575255379 12.0966853042506 5.39529399597086
305 101 4 0 7.85760575255379 11.1666853042506 5.39529399597086
306 102 4 0 12.6922923400719 10.5909758542571 6.56304657342844
307 102 5 0 13.6522923400719 10.5909758542571 6.56304657342844
308 102 4 0 13.8922923400719 9.66097585425712 6.56304657342844
309 103 4 0 2.47545822450891 3.37299777585082 1.952442121692
310 103 5 0 3.43545822450891 3.37299777585082 1.952442121692
311 103 4 0 3.67545822450891 2.44299777585082 1.952442121692
312 104 4 0 10.2073923968431 14.6822246494144 10.1078922534361
313 104 5 0 11.1673923968431 14.6822246494144 10.1078922534361
314 104 4 0 11.4073923968431 13.7522246494144 10.1078922534361
315 105 4 0 2.81069107979536 4.91193547536619 10.8803587022703
316 105 5 0 3.77069107979536 4.91193547536619 10.8803587022703
317 105 4 0 4.01069107979536 3.98193547536619 10.8803587022703
318 106 4 0 12.8814092573896 0.959501903681085 14.9763606686611
319 106 5 0 13.8414092573896 0.959501903681085 14.9763606686611
320 106 4 0 14.0814092573896 0.0295019036810845 14.9763606686611
321 107 4 0 8.7728098807577 7.17494970228523 2.90796855348162
322 107 5 0 9.7328098807577 7.17494970228523 2.90796855348162
323 107 4 0 9.9728098807577 6.24494970228523 2.90796855348162
324 108 4 0 6.35487230538391 7.48538635944948 0.83554896642454
325 108 5 0 7.31487230538391 7.48538635944948 0.83554896642454
326 108 4 0 7.55487230538391 6.55538635944948 0.83554896642454
327 109 4 0 9.32380033467896 13.8847232858557 14.6698740602005
328 109 5 0 10.283800334679 13.8847232858557 14.6698740602005
329 109 4 0 10.523800334679 12.9547232858557 14.6698740602005
330 110 4 0 10.9971826504637 5.41896163526922 9.51559317181818
331 110 5 0 11.9571826504637 5.41896163526922 9.51559317181818
332 110 4 0 12.1971826504637 4.48896163526922 9.51559317181818
333 111 4 0 0.700959192328155 6.92544993170537 7.70454853889532
334 111 5 0 1.66095919232816 6.92544993170537 7.70454853889532
335 111 4 0 1.90095919232816 5.99544993170537 7.70454853889532
336 112 4 0 1.90203059974127 12.0070388556365 2.48104002792388
337 112 5 0 2.86203059974127 12.0070388556365 2.48104002792388
338 112 4 0 3.10203059974127 11.0770388556365 2.48104002792388
339 113 4 0 12.9276989008952 9.90333698265255 2.3250568297226
340 113 5 0 13.8876989008952 9.90333698265255 2.3250568297226
341 113 4 0 14.1276989008952 8.97333698265255 2.3250568297226
342 114 4 0 11.8862948384788 4.19509203796275 0.626708571799099
343 114 5 0 12.8462948384788 4.19509203796275 0.626708571799099
344 114 4 0 13.0862948384788 3.26509203796275 0.626708571799099
345 115 4 0 8.75168338112533 1.44268841174431 1.33466399973258
346 115 5 0 9.71168338112533 1.44268841174431 1.33466399973258
347 115 4 0 9.95168338112533 0.512688411744311 1.33466399973258
348 116 4 0 7.2073031197954 9.26097202854231 3.48312308080494
349 116 5 0 8.1673031197954 9.26097202854231 3.48312308080494
350 116 4 0 8.4073031197954 8.33097202854231 3.48312308080494
351 117 4 0 10.5649282636307 8.00677675445564 3.2070099923294
352 117 5 0 11.5249282636307 8.00677675445564 3.2070099923294
353 117 4 0 11.7649282636307 7.07677675445564 3.2070099923294
354 118 4 0 7.6462859920878 1.32279163616709 9.8726648488082
355 118 5 0 8.6062859920878 1.32279163616709 9.8726648488082
356 118 4 0 8.8462859920878 0.392791636167094 9.8726648488082
357 119 4 0 13.2609777599294 4.13989293430001 14.9905570980627
358 119 5 0 14.2209777599294 4.13989293430001 14.9905570980627
359 119 4 0 14.4609777599294 3.20989293430001 14.9905570980627
360 120 4 0 12.2139846060611 0.960391593808308 12.3238214431331
361 120 5 0 13.1739846060611 0.960391593808308 12.3238214431331
362 120 4 0 13.4139846060611 0.0303915938083082 12.3238214431331
363 121 4 0 5.34951922061853 12.8811784674786 11.8750548642129
364 121 5 0 6.30951922061853 12.8811784674786 11.8750548642129
365 121 4 0 6.54951922061853 11.9511784674786 11.8750548642129
366 122 4 0 12.3398597496282 1.98680979473516 1.51686835451983
367 122 5 0 13.2998597496282 1.98680979473516 1.51686835451983
368 122 4 0 13.5398597496282 1.05680979473516 1.51686835451983
369 123 4 0 9.90169372919016 5.17104008625261 6.86247480218299
370 123 5 0 10.8616937291902 5.17104008625261 6.86247480218299
371 123 4 0 11.1016937291902 4.24104008625261 6.86247480218299
372 124 4 0 4.95525160848163 14.4052309092972 6.65989839239046
373 124 5 0 5.91525160848163 14.4052309092972 6.65989839239046
374 124 4 0 6.15525160848163 13.4752309092972 6.65989839239046
375 125 4 0 0.472188455024734 8.99392986012623 6.19535424979404
376 125 5 0 1.43218845502473 8.99392986012623 6.19535424979404
377 125 4 0 1.67218845502473 8.06392986012623 6.19535424979404
378 126 4 0 1.85828623638488 12.730872884104 7.01404570019804
379 126 5 0 2.81828623638488 12.730872884104 7.01404570019804
380 126 4 0 3.05828623638488 11.800872884104 7.01404570019804
381 127 4 0 10.1664601375535 6.95192701573484 4.78940313099883
382 127 5 0 11.1264601375535 6.95192701573484 4.78940313099883
383 127 4 0 11.3664601375535 6.02192701573484 4.78940313099883
384 128 4 0 13.5016705181636 0.435531866215169 4.58497420186177
385 128 5 0 14.4616705181636 0.435531866215169 4.58497420186177
386 128 4 0 14.7016705181636 -0.494468133784831 4.58497420186177
387 129 4 0 8.42182810345665 14.4849376186635 5.97541310009547
388 129 5 0 9.38182810345665 14.4849376186635 5.97541310009547
389 129 4 0 9.62182810345665 13.5549376186635 5.97541310009547
390 130 4 0 -0.592353323735297 4.52402316889726 3.01626820117235
391 130 5 0 0.367646676264703 4.52402316889726 3.01626820117235
392 130 4 0 0.607646676264703 3.59402316889726 3.01626820117235
393 131 4 0 8.06557510790415 6.89965094364248 11.8957603233866
394 131 5 0 9.02557510790415 6.89965094364248 11.8957603233866
395 131 4 0 9.26557510790415 5.96965094364248 11.8957603233866
396 132 4 0 -0.546880884356797 2.00344002497382 12.6757573359646
397 132 5 0 0.413119115643203 2.00344002497382 12.6757573359646
398 132 4 0 0.653119115643203 1.07344002497382 12.6757573359646
399 133 4 0 10.188574241912 3.70879284030758 5.49609979265369
400 133 5 0 11.148574241912 3.70879284030758 5.49609979265369
401 133 4 0 11.388574241912 2.77879284030758 5.49609979265369
402 134 4 0 13.2042886542343 7.81716756097972 7.64937172061764
403 134 5 0 14.1642886542343 7.81716756097972 7.64937172061764
404 134 4 0 14.4042886542343 6.88716756097972 7.64937172061764
405 135 4 0 4.46075565691106 10.7200975743495 13.603792861104
406 135 5 0 5.42075565691106 10.7200975743495 13.603792861104
407 135 4 0 5.66075565691106 9.79009757434949 13.603792861104
408 136 4 0 10.7005970009789 8.78122650477104 14.8405921272933
409 136 5 0 11.6605970009789 8.78122650477104 14.8405921272933
410 136 4 0 11.9005970009789 7.85122650477104 14.8405921272933
411 137 4 0 8.23761884981766 11.4901019369159 14.9189234955702
412 137 5 0 9.19761884981766 11.4901019369159 14.9189234955702
413 137 4 0 9.43761884981766 10.5601019369159 14.9189234955702
414 138 4 0 8.94914430144243 12.9141451282799 7.43991081020795
415 138 5 0 9.90914430144243 12.9141451282799 7.43991081020795
416 138 4 0 10.1491443014424 11.9841451282799 7.43991081020795
417 139 4 0 0.355397167587653 7.20529535593465 6.68780258274637
418 139 5 0 1.31539716758765 7.20529535593465 6.68780258274637
419 139 4 0 1.55539716758765 6.27529535593465 6.68780258274637
420 140 4 0 7.58761028453708 7.6237486493215 2.41830879589543
421 140 5 0 8.54761028453708 7.6237486493215 2.41830879589543
422 140 4 0 8.78761028453708 6.6937486493215 2.41830879589543
423 141 4 0 5.42780212752521 9.9767238837108 12.9245806729887
424 141 5 0 6.38780212752521 9.9767238837108 12.9245806729887
425 141 4 0 6.62780212752521 9.0467238837108 12.9245806729887
426 142 4 0 13.3011955702398 1.41123742604628 7.63323701452464
427 142 5 0 14.2611955702398 1.41123742604628 7.63323701452464
428 142 4 0 14.5011955702398 0.481237426046282 7.63323701452464
429 143 4 0 -0.294695541523397 10.1008367321361 11.2112873909064
430 143 5 0 0.665304458476603 10.1008367321361 11.2112873909064
431 143 4 0 0.905304458476603 9.17083673213609 11.2112873909064
432 144 4 0 8.2848315259628 1.48965721292421 6.62024298682809
433 144 5 0 9.2448315259628 1.48965721292421 6.62024298682809
434 144 4 0 9.4848315259628 0.559657212924212 6.62024298682809
435 145 4 0 7.50893641423434 13.4219136663619 14.9092112237122
436 145 5 0 8.46893641423434 13.4219136663619 14.9092112237122
437 145 4 0 8.70893641423434 12.4919136663619 14.9092112237122
438 146 4 0 4.65067037425004 6.35293992626481 6.47916257497855
439 146 5 0 5.61067037425004 6.35293992626481 6.47916257497855
440 146 4 0 5.85067037425004 5.42293992626481 6.47916257497855
441 147 4 0 6.68793399629183 2.20670358668081 2.0324231882114
442 147 5 0 7.64793399629183 2.20670358668081 2.0324231882114
443 147 4 0 7.88793399629183 1.27670358668081 2.0324231882114
444 148 4 0 4.48070317201316 14.3984045930579 4.2641825939063
445 148 5 0 5.44070317201316 14.3984045930579 4.2641825939063
446 148 4 0 5.68070317201316 13.4684045930579 4.2641825939063
447 149 4 0 4.90913038185798 8.91658100107685 10.9558672620915
448 149 5 0 5.86913038185798 8.91658100107685 10.9558672620915
449 149 4 0 6.10913038185798 7.98658100107685 10.9558672620915
450 150 4 0 5.82051055200398 11.3726108653378 9.35097433975898
451 150 5 0 6.78051055200398 11.3726108653378 9.35097433975898
452 150 4 0 7.02051055200398 10.4426108653378 9.35097433975898
453 151 4 0 0.792610944919288 8.55138152878732 1.25725619145669
454 151 5 0 1.75261094491929 8.55138152878732 1.25725619145669
455 151 4 0 1.99261094491929 7.62138152878731 1.25725619145669
456 152 4 0 6.15159279012121 0.837927919756621 13.1510017323308
457 152 5 0 7.11159279012121 0.837927919756621 13.1510017323308
458 152 4 0 7.35159279012121 -0.0920720802433789 13.1510017323308
459 153 4 0 11.7568011714332 11.5310806948133 14.5095091976691
460 153 5 0 12.7168011714332 11.5310806948133 14.5095091976691
461 153 4 0 12.9568011714332 10.6010806948133 14.5095091976691
462 154 4 0 4.19288655786775 10.133771918891 6.10254525323398
463 154 5 0 5.15288655786775 10.133771918891 6.10254525323398
464 154 4 0 5.39288655786775 9.203771918891 6.10254525323398
465 155 4 0 0.662228373549879 2.31198817998171 1.2602990178857
466 155 5 0 1.62222837354988 2.31198817998171 1.2602990178857
467 155 4 0 1.86222837354988 1.38198817998171 1.2602990178857
468 156 4 0 6.14126827960834 12.0096296460275 12.9353551380336
469 156 5 0 7.10126827960834 12.0096296460275 12.9353551380336
470 156 4 0 7.34126827960834 11.0796296460275 12.9353551380336
471 157 4 0 3.57126553586684 0.744726391686127 3.97637540241703
472 157 5 0 4.53126553586684 0.744726391686127 3.97637540241703
473 157 4 0 4.77126553586684 -0.185273608313873 3.97637540241703
474 158 4 0 13.6913616133109 6.99114876956679 12.4063959158957
475 158 5 0 14.6513616133109 6.99114876956679 12.4063959158957