LAMMPS (29 Sep 2021 - Update 1)
# Test LAMMPS input file for single DeFDe

# Initialize simulation

clear

units real
atom_style full
boundary p p p
dielectric 1
special_bonds dreiding

bond_style harmonic
angle_style harmonic
dihedral_style harmonic
improper_style umbrella
pair_style hybrid/overlay hbond/dreiding/lj 4 9.0 11.0 90 lj/cut 8.50000

# Read data file
read_data frag5.dat
Reading data file ...
  triclinic box = (0.0000000 0.0000000 0.0000000) to (15.000000 15.000000 15.000000) with tilt (0.0000000 0.0000000 0.0000000)
  2 by 4 by 4 MPI processor grid
  reading atoms ...
  1505 atoms
  scanning bonds ...
  2 = max bonds/atom
  scanning angles ...
  6 = max angles/atom
  reading bonds ...
  1004 bonds
  reading angles ...
  506 angles
Finding 1-2 1-3 1-4 neighbors ...
  special bond factors lj:    0        0        1       
  special bond factors coul:  0        0        1       
     4 = max # of 1-2 neighbors
     3 = max # of 1-3 neighbors
     4 = max # of special neighbors
  special bonds CPU = 0.002 seconds
  read_data CPU = 0.016 seconds

# Dreiding potential information

bond_coeff 1 350 1.371
bond_coeff 2 350 1.09
bond_coeff 3 350 0.98

angle_coeff 1 50 109.471
angle_coeff 2 50 104.51


improper_coeff 1 40 0

pair_coeff 1 1 lj/cut 0.0725 3.472
pair_coeff 1 2 lj/cut 0.0830346313293435 3.67898051095681
pair_coeff 1 3 lj/cut 0.0331963853453957 3.33062156361241
pair_coeff 1 4 lj/cut 0.00269258240356725 3.32957895236019
pair_coeff 1 5 lj/cut 0.0832961583748014 3.43813484319623
pair_coeff 2 2 lj/cut 0.0951 3.8983
pair_coeff 2 3 lj/cut 0.0380199947396104 3.52917391183829
pair_coeff 2 4 lj/cut 0.00308382878902186 3.52806914614779
pair_coeff 2 5 lj/cut 0.0953995283007206 3.64309650983885
pair_coeff 3 3 lj/cut 0.0152 3.195
pair_coeff 3 4 lj/cut 0.0012328828005938 3.19399984345648
pair_coeff 3 5 lj/cut 0.0381397430510485 3.29813538230316
pair_coeff 4 4 lj/cut 1e-04 3.193
pair_coeff 4 5 lj/cut 0.0030935416596516 3.29710294046152
pair_coeff 5 5 lj/cut 0.0957 3.4046
pair_coeff 1 5 hbond/dreiding/lj 4 j 9.50 2.75 4 9.0 11.0 90
pair_coeff 5 5 hbond/dreiding/lj 4 j 9.50 2.75 4 9.0 11.0 90

neighbor 2 bin
neigh_modify every 2 one 10000

# Gemoetric relaxation
fix 1 all box/relax iso 1.0 vmax 0.001
minimize 1.0e-4 1.0e-6 10000 10000
WARNING: Using 'neigh_modify every 1 delay 0 check yes' setting during minimization (../min.cpp:188)
Neighbor list info ...
  update every 1 steps, delay 0 steps, check yes
  max neighbors/atom: 10000, page size: 100000
  master list distance cutoff = 13
  ghost atom cutoff = 13
  binsize = 6.5, bins = 3 3 3
  3 neighbor lists, perpetual/occasional/extra = 3 0 0
  (1) pair hbond/dreiding/lj, perpetual, skip from (3)
      attributes: full, newton on
      pair build: skip
      stencil: none
      bin: none
  (2) pair lj/cut, perpetual, half/full from (3)
      attributes: half, newton on
      pair build: halffull/newton
      stencil: none
      bin: none
  (3) neighbor class addition, perpetual
      attributes: full, newton on
      pair build: full/bin
      stencil: full/bin/3d
      bin: standard
Per MPI rank memory allocation (min/avg/max) = 10.71 | 11.00 | 11.28 Mbytes
Step Temp E_pair E_mol TotEng Press Volume 
       0            0 1.4225128e+27     193.7667 1.4225128e+27 1.156023e+29         3375 
    5331            0   -1079.8101    19.302597   -1060.5075    134.16798    37655.765 
Loop time of 4.60218 on 32 procs for 5331 steps with 1505 atoms

100.0% CPU use with 32 MPI tasks x no OpenMP threads

Minimization stats:
  Stopping criterion = energy tolerance
  Energy initial, next-to-last, final = 
    1.42251275143481e+27  -1059.91010634528   -1060.0075043747
  Force two-norm initial, final = 1.9335191e+30 122.72546
  Force max component initial, final = 1.3497034e+30 98.184412
  Final line search alpha, max atom move = 2.1070302e-05 0.0020687752
  Iterations, force evaluations = 5331 5391

MPI task timing breakdown:
Section |  min time  |  avg time  |  max time  |%varavg| %total
---------------------------------------------------------------
Pair    | 1.389      | 2.7404     | 3.8582     |  37.3 | 59.55
Bond    | 0.0065305  | 0.010769   | 0.014942   |   1.9 |  0.23
Neigh   | 0.089775   | 0.090096   | 0.090341   |   0.1 |  1.96
Comm    | 0.28102    | 1.4061     | 2.7565     |  52.2 | 30.55
Output  | 0          | 0          | 0          |   0.0 |  0.00
Modify  | 0          | 0          | 0          |   0.0 |  0.00
Other   |            | 0.3548     |            |       |  7.71

Nlocal:        47.0312 ave          61 max          24 min
Histogram: 1 0 2 4 5 1 6 4 2 7
Nghost:        1940.91 ave        1994 max        1878 min
Histogram: 1 3 5 5 1 1 3 6 5 2
Neighs:        4869.75 ave        7180 max        2236 min
Histogram: 1 0 5 6 4 3 4 5 1 3

Total # of neighbors = 155832
Ave neighs/atom = 103.54286
Ave special neighs/atom = 2.0066445
Neighbor list builds = 98
Dangerous builds = 0

# MD simulation
velocity all create 300.0 12345 rot yes dist gaussian
timestep 1.0
fix 2 all nvt temp 300.0 300.0 1

# Compute interaction energy
group WAT molecule <> 2 501
1500 atoms in group WAT
group MOL molecule 1
5 atoms in group MOL

compute w WAT group/group MOL pair yes
fix 3 all ave/time 10 5 100 c_w file outa

# Outputs
thermo 100 # Output thermodynamic data every nth step
#dump mf1 all xyz 10000 mol_*.xyz

# Run
run 1000000
Neighbor list info ...
  update every 2 steps, delay 10 steps, check yes
  max neighbors/atom: 10000, page size: 100000
  master list distance cutoff = 13
  ghost atom cutoff = 13
  binsize = 6.5, bins = 6 6 6
  4 neighbor lists, perpetual/occasional/extra = 3 1 0
  (1) pair hbond/dreiding/lj, perpetual, skip from (4)
      attributes: full, newton on
      pair build: skip
      stencil: none
      bin: none
  (2) pair lj/cut, perpetual, half/full from (4)
      attributes: half, newton on
      pair build: halffull/newton
      stencil: none
      bin: none
  (3) compute group/group, occasional, copy from (2)
      attributes: half, newton on
      pair build: copy
      stencil: none
      bin: none
  (4) neighbor class addition, perpetual
      attributes: full, newton on
      pair build: full/bin
      stencil: full/bin/3d
      bin: standard
Per MPI rank memory allocation (min/avg/max) = 9.562 | 9.584 | 9.743 Mbytes
Step Temp E_pair E_mol TotEng Press Volume 
    5331          300   -1079.8101    19.302597    284.43404    1766.8619    37655.765 
    5400    297.31704   -1105.9943    177.20147    404.12065    1225.1294    37655.765 
    5500    305.50643   -1130.7648    209.48039    448.34319    1391.7956    37655.765 
    5600    295.64645   -1125.1938    161.88161    362.11172    971.25034    37655.765 
    5700    299.17658   -1089.4733    170.60545    422.38214    1037.2012    37655.765 
    5800    301.26269   -1096.9637    184.87386    438.51248    1398.8133    37655.765 
    5900    289.82803   -1088.5918    183.95305    394.70039    1013.8854    37655.765 
    6000    291.90974   -1087.1917    177.01973    398.49975    836.13676    37655.765 
    6100     311.3893   -1087.5767    191.39736    499.82198    611.90317    37655.765 
    6200     295.4484   -1092.3839    178.74619     410.8983    258.07325    37655.765 
    6300    288.12259   -1109.6104    186.93274    369.01571    128.34301    37655.765 
    6400    296.72689   -1085.8425    187.27594    431.70108    318.82929    37655.765 
    6500    304.56182    -1079.949    185.93267    471.37648   -146.72154    37655.765 
    6600    294.85823   -1131.6752    191.28829    381.50333   -252.57083    37655.765 
    6700    301.28799   -1139.8208    190.71135    401.60628    231.61304    37655.765 
    6800    295.36514   -1141.3904    200.47219    383.24454    313.34494    37655.765 
    6900    296.60409   -1149.1793    196.34374    376.88162    17.545107    37655.765 
    7000    290.82455   -1123.9371     185.6441     365.5137    287.34699    37655.765 
    7100     304.7421   -1093.3681    206.58357    479.41646    586.54133    37655.765 
    7200    294.94257   -1106.1243    204.61647    420.76055    355.59107    37655.765 
    7300    293.77156   -1100.9868    203.09119    419.12286    946.18125    37655.765 
    7400    301.07244   -1094.1513    194.11464    449.71274    633.85957    37655.765 
    7500    299.47706   -1108.2912    207.23077    441.53665    469.08684    37655.765 
    7600    301.45185   -1080.6738    201.83467    472.61125    341.88307    37655.765 
    7700    311.81176   -1103.9038    209.93626    503.92774    307.25462    37655.765 
    7800    295.39918   -1099.6595    195.01827    419.67415    582.37228    37655.765 
    7900    305.10852   -1087.9834    216.14355    496.00385    630.84007    37655.765 
    8000    309.53513   -1090.1372    211.94617    509.49779    660.62903    37655.765 
    8100    297.56457   -1103.1617    207.86072    438.72211     423.5036    37655.765 
    8200    302.69842   -1104.4984    196.56329    449.10376    357.23365    37655.765 
    8300    314.72339   -1139.6208     200.8908    472.21851    292.38835    37655.765 
    8400    304.42996   -1122.1084    212.96719     455.6604    196.09607    37655.765 
    8500    303.44133   -1134.3251    207.42739    433.47176    440.58174    37655.765 
    8600    300.77817   -1113.0406    207.70435    443.09389    362.03306    37655.765 
    8700    288.50809   -1162.0896    206.33621    337.66825    255.62726    37655.765 
    8800    301.26993   -1104.9671    218.59132      464.259    764.41777    37655.765 
    8900    307.75275   -1136.2993    224.99704    468.39591    250.31165    37655.765 
    9000    297.46889   -1112.2263    220.11993     441.4878    352.68878    37655.765 
    9100    310.60998   -1129.8971    235.64282    498.25319    166.22285    37655.765 
    9200    302.55073   -1106.4882     212.6909    462.57946    344.12071    37655.765 
    9300    293.56799   -1116.1972    230.08621    429.99489     58.62012    37655.765 
    9400    293.04937    -1133.984    238.53442    418.33129    64.978502    37655.765 
    9500    294.37964   -1105.9952    238.54953    452.29901   -251.11073    37655.765 
    9600    304.64672   -1175.1071    235.10995    425.77625    18.606072    37655.765 
    9700    298.08562   -1119.5515    239.48436    456.29199    153.37781    37655.765 
    9800    300.74256   -1151.4743    230.07052    426.86674    174.45582    37655.765 
    9900    304.68426   -1169.0656    240.90826    437.78438    156.95762    37655.765 
   10000    308.10017   -1170.5657    221.86215    432.55216   -144.84709    37655.765 
   10100    307.31032   -1160.9245    230.00449    446.79471   -16.585224    37655.765 
   10200    300.65989   -1171.0899    238.98966    415.79964   -188.97816    37655.765 
   10300    296.90057   -1208.2151    246.06296    368.89415     205.6931    37655.765 
   10400    305.98493   -1167.1113    235.48794    440.14938    596.01413    37655.765 
   10500    302.94345   -1163.1317     255.6657    450.67141    438.96401    37655.765 
   10600    291.01165   -1216.0569    250.03593    338.62447    274.02746    37655.765 
   10700    301.26593    -1165.765    239.18253    424.03432    314.33502    37655.765 
   10800    302.10417   -1156.2693    238.71926    436.82477    198.96898    37655.765 
   10900    315.18109   -1201.3247    250.40986    462.08556    310.64044    37655.765 
   11000     292.6312   -1215.4733    238.14476    334.57762    408.56495    37655.765 
   11100    286.06593   -1177.1376    249.04856     354.3841    211.95482    37655.765 
   11200    297.63156   -1197.5517    266.14745    402.91926    445.64729    37655.765 
   11300    292.77978   -1178.4508    249.45108    383.57253    476.45107    37655.765 
   11400    286.00613    -1202.515    265.20489      344.895    711.89766    37655.765 
   11500    304.57761   -1193.2134    260.21405     432.4642    780.86569    37655.765 
   11600    302.34082   -1198.4504    266.05972      423.045    583.20149    37655.765 
   11700    302.58526   -1185.4585    266.41384    437.48685    507.65168    37655.765 
   11800    301.56603   -1158.9032    261.98726    455.04631     348.9576    37655.765 
   11900    308.29033    -1159.255    256.12493    478.97806    1228.6165    37655.765 
   12000    292.96072   -1212.6758    261.46018    362.16785    496.69704    37655.765 
   12100    298.22613   -1192.8169    263.92741    408.09951   -11.749533    37655.765 
   12200    290.51059   -1152.0369    275.60192    425.96419    36.720821    37655.765 
   12300    300.98787   -1191.6156    244.55572    402.31035     389.5972    37655.765 
   12400    298.74376   -1163.8005    266.28301    441.79209   -318.64138    37655.765 
   12500     306.5438   -1185.2965    258.53025    447.51201   -203.65132    37655.765 
   12600    302.64324   -1151.1943    268.01578    473.61302   -208.82235    37655.765 
   12700    299.58196   -1166.3679    246.93935    423.63877    140.32181    37655.765 
   12800     298.5066   -1170.2235    279.77397    447.79681    55.447889    37655.765 
   12900    307.93096   -1144.7004    248.78738    484.58406    483.60767    37655.765 
   13000    303.18415   -1166.4328    286.77515    479.55881   -82.458617    37655.765 
   13100    298.17417   -1162.3628    259.59463    433.98789    312.56234    37655.765 
   13200    297.20789   -1183.6791    278.53469    427.27964   -19.726628    37655.765 
   13300    300.78919   -1159.6953    311.17334    499.95754    211.33216    37655.765 
   13400    298.95162   -1205.4386    250.83824    385.64112     411.1616    37655.765 
   13500    311.33017   -1201.4269    277.36358    471.67296    603.15049    37655.765 
   13600    301.07642    -1213.863    285.56538    421.46963    360.04212    37655.765 
   13700    297.63872   -1173.9879    264.14759    424.51524     570.7059    37655.765 
   13800    293.16013    -1218.257    276.31313    372.33351     193.7778    37655.765 
   13900     293.7244    -1237.679    266.52497    345.65305    582.78379    37655.765 
   14000    304.96093   -1258.6409    278.53366    387.07477     827.7194    37655.765 
   14100    294.46842   -1243.8202    267.80387    344.12627    530.23196    37655.765 
   14200    283.97385   -1193.2896    277.78625    357.59076      251.415    37655.765 
   14300    296.08206    -1225.914    275.48466     376.9475     82.26239    37655.765 
   14400     302.5726   -1230.2378    280.43863    406.67568    568.90186    37655.765 
   14500    305.65446   -1195.9716    275.57105    449.89073     -72.7624    37655.765 
   14600    298.69373   -1211.3421     279.3114    407.05461    268.34507    37655.765 
   14700     291.7871   -1174.5316    284.38822    417.97857    65.321952    37655.765 
   14800    303.04298   -1193.2151    286.79284    452.16139    441.14967    37655.765 
   14900     296.8418   -1193.7891    276.08764    413.08136    344.32887    37655.765 
   15000    290.80938   -1253.1627    295.99336    346.56935    47.801821    37655.765 
   15100    293.50045   -1226.3705    282.41574    371.84838    202.43407    37655.765 
   15200    296.06866   -1207.8323    289.65029    409.13474    89.673103    37655.765 
   15300    303.41448   -1179.1474     285.6375    466.73917    235.39926    37655.765 
   15400    292.81043   -1220.7065    299.38179    391.38495    497.16628    37655.765 
   15500    301.40429   -1269.4973    286.19905    367.93885    418.48428    37655.765 
   15600    306.95317   -1223.3257    290.32892    443.11677    296.64844    37655.765 
   15700    297.29578   -1168.2777    277.46954    442.00994    454.17126    37655.765 
   15800    299.64034   -1198.1408    274.71434    419.90263   -147.72739    37655.765 
   15900    291.10326   -1204.2755    294.29894     395.0796   -378.51438    37655.765 
   16000    306.35454   -1190.2007    290.40075    473.62982    46.290011    37655.765 
   16100    290.11977   -1207.8549    287.48688    380.27908   -272.39135    37655.765 
   16200    298.40198    -1214.551     309.9273    433.15364   -562.75695    37655.765 
   16300    303.38773   -1215.6479    287.61161    432.09279   -317.98413    37655.765 
   16400     296.5518   -1171.4393    302.08175    460.12519   -398.22113    37655.765 
   16500    304.67239   -1198.6382    286.15136    453.40158   -248.38375    37655.765 
   16600    289.42839   -1139.4214    291.13585    449.26192   -188.65575    37655.765 
   16700    302.58796   -1174.9071     294.1599    475.79649   -345.62247    37655.765 
   16800    296.32031   -1221.4503    303.49997    410.49465   -208.98145    37655.765 
   16900    288.75077   -1163.1517    303.44946    434.80743    397.03856    37655.765 
   17000    287.27883   -1150.0694    303.45579    441.29707    122.70866    37655.765 
   17100    304.18142   -1173.7676    295.50867    485.42847    321.49258    37655.765 
   17200    305.76049   -1213.1743    300.02057    457.61286    648.12643    37655.765 
   17300    306.49833   -1286.5391    284.50795    372.04329    573.20932    37655.765 
   17400    302.95505   -1217.5971    282.88159    423.47392      325.895    37655.765 
   17500    287.52657   -1226.1657    293.58343    356.43906    397.18081    37655.765 
   17600    301.79742   -1205.9561    308.79926    455.84276    81.829347    37655.765 
   17700    290.71102   -1219.9152    291.76694    375.14944   -161.09033    37655.765 
   17800     304.5285   -1182.5697    300.22905    482.90272    130.37958    37655.765 
   17900     299.8799   -1208.1381    306.34235     442.6073    164.57286    37655.765 
   18000     300.0374    -1193.711    282.36734    433.76551    395.76359    37655.765 
   18100    301.63754   -1199.5705    307.55113    460.26347    506.34981    37655.765 
   18200    294.01144   -1226.5358    293.14608    384.70427    789.40848    37655.765 
   18300    305.81944   -1202.4708    293.82212    462.38223    854.13115    37655.765 
   18400    299.54216   -1263.7317    303.95942    383.11663    374.54662    37655.765 
   18500    302.56637    -1214.137      292.456    434.76594    670.28156    37655.765 
   18600     294.1633    -1243.957    300.58447    375.40226    317.62051    37655.765 
   18700    293.15199   -1267.7315    291.81231    338.32174    14.515013    37655.765 
   18800     296.6286   -1248.6638    302.24388    383.40707    539.46135    37655.765 
   18900    292.25366   -1257.2366    310.86824    363.84519    23.051489    37655.765 
   19000    304.02186   -1261.2023    286.49018    388.25992     30.34551    37655.765 
   19100    310.16453   -1273.6211     297.0539    413.94323     391.5874    37655.765 
   19200    310.87656   -1232.6167    309.06664     470.1526    443.97392    37655.765 
   19300    292.33901   -1271.2367    300.27453    339.63405    450.63903    37655.765 
   19400     303.3096    -1277.569    288.11461    370.32451    626.93037    37655.765 
   19500    291.76839   -1282.3485    305.79092    331.48049    221.84578    37655.765 
   19600    306.15414    -1273.047    317.66383    417.14825    766.69305    37655.765 
   19700    300.03299   -1248.1757    315.34177    412.25548    439.54559    37655.765 
   19800    294.94013    -1272.942    308.96874    358.28415    583.76766    37655.765 
   19900    305.23948   -1237.2699    318.49086    449.65171    647.35819    37655.765 
   20000    306.02713   -1233.0942    318.19526    457.06305    528.13198    37655.765 
   20100    302.16285   -1269.3798    309.32337    394.58141    287.99592    37655.765 
   20200    296.40801   -1234.1966    311.53832    406.17983    336.24863    37655.765 
   20300    302.27696   -1227.0319    319.58891    447.70643    146.24486    37655.765 
   20400    306.33692   -1250.4326    303.10702    426.02518    305.10079    37655.765 
   20500    302.74037   -1245.7834    308.29548    419.73908    81.793233    37655.765 
   20600    304.32932   -1230.5631    295.40302    429.19039    276.19546    37655.765 
   20700    301.80544   -1219.3469    320.48165    454.17033    593.06439    37655.765 
   20800    295.18808    -1210.064    308.34966    421.65461    999.74921    37655.765 
   20900    296.67719   -1228.6635    315.30036    416.68179    680.10554    37655.765 
   21000    282.09532   -1216.5513    302.14024    350.26131    948.76659    37655.765 
   21100    293.70266   -1221.7318    319.83285    414.81067    233.48212    37655.765 
   21200    300.01927   -1254.2272    297.83269    388.63336   -240.56063    37655.765 
   21300     309.9147    -1252.778    306.16063    442.77311   -245.85631    37655.765 
   21400    307.35589   -1208.1772    322.75001    492.49177   -77.210524    37655.765 
   21500    305.13661    -1223.342    302.75189    447.37955    163.87235    37655.765 
   21600    297.14327   -1210.6743    313.22539    434.68549   -213.45411    37655.765 
   21700    303.30587   -1201.0313    308.91036    467.64122     96.65271    37655.765 
   21800    305.15715   -1214.2709     305.8318    459.62262   -132.18999    37655.765 
   21900    306.60947   -1220.6264    317.60447    471.55071    -359.6372    37655.765 
   22000    301.33877   -1234.5179    311.44199    427.86752    278.35367    37655.765 
   22100    301.67751   -1220.2245    316.43106    448.66854   -49.840814    37655.765 
   22200    291.44892   -1224.1412    314.60195    397.06661   -153.09932    37655.765 
   22300    303.98228   -1229.3889    329.02695    462.43265    24.940437    37655.765 
   22400    304.92104   -1302.2309    315.03575    379.80806    130.20522    37655.765 
   22500    298.63164   -1271.2458    308.16274    375.72395    14.740334    37655.765 
   22600    295.59202   -1277.7495    296.39378     343.8242    57.856911    37655.765 
   22700    301.48182   -1253.8612    330.56054    428.28402    163.81964    37655.765 
   22800    306.96291   -1285.7666     316.7812    407.17184    331.05096    37655.765 
   22900    303.59856   -1301.2148    324.95893    384.81845    266.81012    37655.765 
   23000     303.4586   -1295.4321    309.98115    374.99598    31.389936    37655.765 
   23100    298.97403   -1293.3574    338.41935    385.40386    48.215666    37655.765 
   23200    305.31246   -1279.1499    325.80371    415.41174    51.682469    37655.765 
   23300    291.93623   -1289.5334    314.17788    333.43499    125.90947    37655.765 
   23400    308.26721   -1276.2307    319.13751    424.91134     147.0754    37655.765 
   23500    301.08973   -1286.6271     320.4462    383.64601    154.81423    37655.765 
   23600    308.48698   -1279.4173    324.13653    427.70906    417.51126    37655.765 
   23700    290.40943   -1276.5761    336.57207    361.94165   -42.410643    37655.765 
   23800    305.68009   -1296.0527    299.64369    373.99714   -221.64138    37655.765 
   23900    295.69131   -1300.4644    295.67007    320.83069    94.805127    37655.765 
   24000     305.3365   -1349.9457     321.6375    340.55756     197.1439    37655.765 
   24100    294.31947   -1328.6343    327.53835    318.37896   -107.58368    37655.765 
   24200    299.82601   -1296.5262    328.64722    376.28243    68.322905    37655.765 
   24300    295.21999   -1287.0283    321.56096    358.04469    92.371471    37655.765 
   24400    293.47796   -1291.4971    307.73517    331.94042   -15.259754    37655.765 
   24500    299.63789   -1272.8738    332.10103     402.5453     52.25478    37655.765 
   24600    304.19928   -1263.5703    318.45593    418.65309   -14.568376    37655.765 
   24700     305.7125   -1266.9762     336.5536    440.12887    127.53638    37655.765 
   24800    299.19197    -1263.901    317.35503    394.77301   -401.13544    37655.765 
   24900    299.45131   -1268.3359    314.43362    388.57932   -212.48277    37655.765 
   25000    306.50702   -1242.4073    344.42287    476.12899   -106.44836    37655.765 
   25100    305.24407   -1220.5235     335.5449    483.47274   -157.57061    37655.765 
   25200    304.10209   -1232.2238    329.50999    460.61798    -110.8773    37655.765 
   25300      292.875   -1246.9468    347.52325    413.57556   -335.48049    37655.765 
   25400    293.58637   -1291.8997    331.35113    355.63975   -590.92846    37655.765 
   25500    292.18907    -1243.248    340.53192    407.20793   -135.49266    37655.765 
   25600    292.74053   -1282.3591    329.24623    359.28343   -420.20079    37655.765 
   25700    296.14113   -1287.0886    338.82945    379.38256   -187.54697    37655.765 
   25800    303.18893   -1274.0619    343.68439    428.86039   -43.026813    37655.765 
   25900    299.62037      -1301.7    332.29264    373.83217    108.84369    37655.765 
   26000    292.78079   -1265.4105    323.13465    370.30087   -31.876348    37655.765 
   26100      308.281   -1276.1964     341.1938    447.06378    83.477769    37655.765 
   26200    300.76988   -1288.0124    340.16549    400.54603    270.13808    37655.765 
   26300    299.05836   -1269.2496    331.72196    403.19239    170.76936    37655.765 
   26400    301.69924   -1281.0609    324.23177    395.73031    2.1229111    37655.765 
   26500    288.12993   -1293.4604    345.92671    344.19261    22.127233    37655.765 
   26600    294.77973   -1259.4637    332.15644      394.231    224.66523    37655.765 
   26700    297.86249    -1312.427    347.93202     370.8637    483.47415    37655.765 
   26800     306.3286   -1268.9792    333.09297     437.4273    420.88056    37655.765 
   26900    301.99539   -1265.0062    345.19696    434.07784    675.90072    37655.765 
   27000    296.55118   -1245.6971    353.81612    437.59894    520.07353    37655.765 
   27100    307.04123   -1253.2978    353.86964    477.08019    489.79978    37655.765 
   27200    303.09391   -1264.0491    363.26937    458.03222    326.51482    37655.765 
   27300     300.8475   -1247.1463    350.31938    451.91408    48.242261    37655.765 
   27400    303.89204   -1237.6835    340.24128    464.94778    307.21168    37655.765 
   27500    295.36233   -1286.6044    344.22856    381.77429   -215.65238    37655.765 
   27600    293.94589   -1261.7084    341.68428    397.77595    146.66504    37655.765 
   27700    303.25544   -1261.5707    391.80428    489.76964    105.94354    37655.765 
   27800    303.80256   -1239.7419     353.8635    476.11052    234.90518    37655.765 
   27900    303.78735   -1265.2269    342.41422    439.10804     279.2179    37655.765 
   28000    298.30551   -1271.4249    370.42557    436.34556    33.984089    37655.765 
   28100    297.59671   -1250.8913    356.73242    440.00839    237.41931    37655.765 
   28200    290.83299   -1256.5667    347.60223     394.8801    282.57453    37655.765 
   28300    304.62439   -1242.9912    367.85858    490.54069   -57.892446    37655.765 
   28400    306.15453   -1254.9698    352.47438    470.03774   -116.75715    37655.765 
   28500    305.68567   -1268.0108    362.70907    465.12942   -167.09205    37655.765 
   28600    297.87362   -1220.4476    366.76852     481.7295   -101.09098    37655.765 
   28700    313.49485   -1273.6445    356.91678    488.71302   -76.962222    37655.765 
   28800     306.0788   -1304.7156    361.26057    428.73859    260.39297    37655.765 
   28900    292.99526   -1292.1656    345.96114    367.33378    364.57162    37655.765 
   29000    320.63249   -1284.1751    337.52811    490.79282    71.974813    37655.765 
   29100    307.40126   -1307.5536    347.40797    417.97669    637.61112    37655.765 
   29200    300.19709    -1280.418    354.48819    419.89524   -11.099399    37655.765 
   29300    298.11916   -1272.3159    327.98027    392.17378   -243.36688    37655.765 
   29400    305.63036   -1280.2568    322.31878    412.24522   -79.848974    37655.765 
   29500    295.02004   -1276.3894    364.86017    411.08638    15.055706    37655.765 
   29600    287.49986   -1244.6931    386.15467    430.36325    32.015879    37655.765 
   29700      305.292   -1321.5725    345.17636    392.27015   -76.909022    37655.765 
   29800    317.88201   -1317.4613    344.64138    452.28909   -198.53073    37655.765 
   29900    301.76552   -1289.8323    334.50834    397.53263     243.5324    37655.765 
   30000    291.36718   -1304.3823    356.94286    358.79988   -240.24834    37655.765 
   30100    301.36351   -1289.5569    345.11244    406.60982   -172.08611    37655.765 
   30200    297.43836   -1311.0991    329.08549    351.44368   -20.118287    37655.765 
   30300    286.16519   -1280.2365    360.68898    363.37065   -215.15721    37655.765 
   30400    289.43435   -1257.4453    364.57446    404.70336   0.12611806    37655.765 
   30500    307.89822   -1258.1726    331.96897    454.14667    55.236979    37655.765 
   30600     294.5386   -1253.2886    348.88995    416.05862    155.80341    37655.765 
   30700    298.51993   -1341.0797    341.04195    338.26842   -220.36208    37655.765 
   30800    297.14128   -1259.3722    350.11961     422.8729   -480.60865    37655.765 
   30900    293.33699   -1280.8219    359.18739    393.43581   -276.56122    37655.765 
   31000     305.8503    -1269.493    373.31587    474.99208   -281.31831    37655.765 
   31100    299.97281   -1250.3561    386.80102    481.26451   -57.257766    37655.765 
   31200    298.09626   -1234.8114     381.4492    483.04452   -31.292973    37655.765 
   31300    298.01103   -1200.8801    386.47044    521.61505    49.160565    37655.765 
   31400    307.34248   -1245.2706    347.92812     480.5164   -275.33814    37655.765 
   31500    303.42369    -1264.237     359.7137     455.7671    -289.3965    37655.765 
   31600    299.72487   -1251.5093    362.30144    454.50017   -411.25186    37655.765 
   31700    306.95404   -1250.8699    359.95878    485.20632   -82.230916    37655.765 
   31800     295.9965   -1262.7211    342.74049    407.01259   -56.833838    37655.765 
   31900    302.85427   -1298.3461    371.43801    430.82944    50.937844    37655.765 
   32000    298.92296   -1275.2564    371.62529    436.48187   -78.333801    37655.765 
   32100    306.25941   -1284.1449    366.24231    455.10074    -31.07845    37655.765 
   32200    298.06043   -1299.9979    363.47707    399.72525   -378.39224    37655.765 
   32300    299.12121   -1286.6939    350.63846    404.94628   -221.29303    37655.765 
   32400    300.29597   -1320.3505    326.19667    352.11449   -502.85431    37655.765 
   32500    289.36195   -1315.3943    333.89752    315.75281   -436.46494    37655.765 
   32600    312.41312   -1296.1153    341.04091    445.51683   -142.34609    37655.765 
   32700    290.99818   -1289.7166    366.78744    381.65594   -354.09299    37655.765 
   32800     291.0902   -1287.0881     348.1142    366.02368   -429.32839    37655.765 
   32900    310.17043   -1271.5352    362.63126    481.63294    150.96496    37655.765 
   33000    302.16205   -1333.1416    370.31162     391.8043   -239.46467    37655.765 
   33100    299.51182   -1294.7345    372.67916    420.69762    506.63692    37655.765 
   33200    304.71595   -1281.7642    344.56437    428.88393   -3.7209152    37655.765 
   33300    294.29733   -1325.4475    355.26683    349.19497   -165.03953    37655.765 
   33400    293.54374   -1320.3265    343.42941     339.1001    343.70861    37655.765 
   33500     294.0508   -1321.0534    346.34319    343.56024    200.98661    37655.765 
   33600    299.39108   -1352.3027    351.63906    341.54796    571.08314    37655.765 
   33700    296.05505   -1319.4708     370.1627    377.94765     496.1128    37655.765 
   33800    301.01874   -1347.3114    362.83464    365.03192       809.57    37655.765 
   33900    292.21211   -1351.2874     367.2399    325.97982    245.74691    37655.765 
   34000    294.81681   -1292.7882    377.72268      406.639    204.15026    37655.765 
   34100    302.82875    -1335.035    358.53487     381.1231    409.12827    37655.765 
   34200    306.18333   -1305.7616    356.23108    423.13168     311.8486    37655.765 
   34300    296.63144   -1291.6729    364.17873    402.34557     640.3115    37655.765 
   34400    299.58149   -1319.9796    389.48011     412.5658    698.66906    37655.765 
   34500    312.67814   -1304.4874    390.79095    488.08285    576.03407    37655.765 
   34600    294.28313   -1327.0086    377.93175    370.23517    250.19343    37655.765 
   34700    299.00508   -1315.8644    360.85073    385.46752    400.28868    37655.765 
   34800    297.60775   -1325.7328    352.94696    361.43086    24.350223    37655.765 
   34900    293.78708   -1341.0635    362.98816    339.01276    -200.8229    37655.765 
   35000    294.28591   -1328.6904    359.85781    350.49181   -258.96346    37655.765 
   35100    301.56117   -1337.0002    357.04325    371.98352    -145.5385    37655.765 
   35200    291.19121    -1308.183     373.6677    370.93515   -228.22659    37655.765 
   35300    304.79851   -1296.9292     374.9929    444.51761   -438.78757    37655.765 
   35400     306.9723   -1251.8267    378.47928     502.8519   -217.59264    37655.765 
   35500    296.71654   -1300.7983    367.68557    397.10857   -254.97234    37655.765 
   35600    299.25832   -1295.6589    363.88141    409.83897   -385.24448    37655.765 
   35700    302.83916   -1313.5504    376.80453    420.92393    463.27484    37655.765 
   35800     309.8297   -1337.7593    392.50529    443.75542     780.0972    37655.765 
   35900    308.90691   -1376.5977    378.81765    387.09237    423.82815    37655.765 
   36000    305.33102    -1342.794    386.35425    412.40142    377.00563    37655.765 
   36100    311.86269   -1347.4611     388.7757    439.43823    705.79294    37655.765 
   36200    299.33911    -1339.533    371.63486    374.08047    656.21672    37655.765 
   36300    300.30913   -1322.8544    400.39668    423.86969     400.0448    37655.765 
   36400    291.84797   -1329.0313    358.62648    337.99002    350.29174    37655.765 
   36500    309.14987   -1317.0873    374.52662     443.4009    286.69055    37655.765 
   36600    299.65274   -1311.0794    370.19765    402.50294    210.00572    37655.765 
   36700    306.54771   -1337.9518    374.34039    410.68439    17.073179    37655.765 
   36800    303.46019   -1321.5823    393.68106    432.55272     439.8428    37655.765 
   36900    288.19142    -1341.531    408.30325     358.7743    312.93594    37655.765 
   37000    298.84091     -1336.07    380.54142    384.21657    40.014266    37655.765 
   37100    305.39456   -1326.8269    382.66768    424.96679   -373.12769    37655.765 
   37200    308.63607    -1312.332    380.18683    451.51305   -636.17105    37655.765 
   37300    311.68371   -1312.1662    403.30641    488.46134   -421.20277    37655.765 
   37400    295.18844    -1363.504    389.03931    348.90589   -478.35779    37655.765 
   37500    293.48812   -1380.6497     377.6022    312.70032   -347.56189    37655.765 
   37600    298.37353    -1369.208    371.62339    340.06521    -519.6774    37655.765 
   37700    286.55324   -1367.5406    363.43182    280.54904    -376.2989    37655.765 
   37800    300.73534   -1361.0126    388.45486    375.68044   -360.28386    37655.765 
   37900    296.00085   -1343.8896     364.9968    348.11991    61.428329    37655.765 
   38000    305.59615   -1343.3128    391.90657    418.62361   -276.51163    37655.765 
   38100    293.01551   -1359.2212    356.45246    310.86034   -73.816226    37655.765 
   38200    294.89923   -1333.6295    369.36999    357.81451   -526.87241    37655.765 
   38300    290.41227   -1297.9482     391.0455    395.05566   -790.73307    37655.765 
   38400    301.11626   -1331.7207    397.25835    415.48354   -166.60306    37655.765 
   38500    307.69644   -1314.3161    385.44793    450.57756   -148.68561    37655.765 
   38600    308.35768   -1327.5616    380.37651    435.22501    268.28623    37655.765 
   38700    293.81223   -1329.8688    393.43257    380.76465   -271.90966    37655.765 
   38800    295.79807   -1332.2914    377.38597    371.19818    347.56028    37655.765 
   38900    307.90076   -1357.5868    373.28919    396.06402    151.33169    37655.765 
   39000    291.33566   -1360.0623    364.83161    310.86732    75.596537    37655.765 
   39100    292.58139   -1362.5727    375.67116     324.7813    403.89185    37655.765 
   39200    295.64816   -1349.7695    398.55076    374.21281    282.20957    37655.765 
   39300    308.42236   -1333.7226     385.6546    434.63208     202.4696    37655.765 
   39400    304.64421   -1311.7676    369.54139    423.53595    379.47832    37655.765 
   39500    306.32702   -1335.6634     388.6811    426.32413     179.1565    37655.765 
   39600    303.17674    -1349.752    390.51204    399.94329    122.13929    37655.765 
   39700    293.90687    -1338.569    372.92491    351.98111   -150.32555    37655.765 
   39800    305.64115   -1383.1656    360.44182    347.50772   -61.958242    37655.765 
   39900    299.83036   -1383.9379    372.90737    333.15044   -39.344394    37655.765 
   40000    293.25352   -1370.6459    394.14734    338.19753   -149.60887    37655.765 
   40100    309.16943    -1356.644    379.80758    409.21292   -19.578936    37655.765 
   40200    303.70524    -1367.961    380.08686    373.67841    286.07495    37655.765 
   40300    311.38722   -1374.1724    361.48887    383.30846   -451.23583    37655.765 
   40400    299.60419   -1394.6974    374.52974    322.99931    -337.4478    37655.765 
   40500    292.75351   -1346.9618    376.01808    341.51073   -712.63247    37655.765 
   40600     298.2885   -1339.6129    377.19556    374.85128   -141.25289    37655.765 
   40700    293.83318    -1358.936    375.19173     333.5505   -60.863097    37655.765 
   40800    303.12749   -1369.2946     377.1418    366.80966   -451.76546    37655.765 
   40900    292.91695   -1370.4507    357.91654    300.65307   -148.19378    37655.765 
   41000    303.60701   -1406.4628    381.00077    335.65014   -652.03643    37655.765 
   41100    306.52975   -1341.3905     370.3089    403.13368   -434.98699    37655.765 
   41200    302.23847   -1371.2032    388.33279    372.10648   -301.65865    37655.765 
   41300      293.987   -1360.5859     382.0783    339.47673   -9.3598538    37655.765 
   41400    297.28595   -1308.4602    386.37963    410.69345    137.20864    37655.765 
   41500    311.53813   -1354.9624    392.49029    434.19637   -178.58935    37655.765 
   41600    292.79508   -1364.1703    370.70177    319.17232   -340.28703    37655.765 
   41700    306.23688   -1388.9842    381.75816    365.67626   -277.96489    37655.765 
   41800     285.8687   -1348.4242    385.44041    318.60517    -81.35361    37655.765 
   41900    299.32813   -1349.5652    380.36477    372.72896    148.46504    37655.765 
   42000     304.3857   -1372.8898    384.08788    375.80126    244.48215    37655.765 
   42100     292.5746   -1403.5236    397.52647    305.65532   -17.410982    37655.765 
   42200    314.14265   -1364.2353     414.7883    458.89794    326.63327    37655.765 
   42300    306.02432   -1364.7385    407.94132    415.15215    62.830418    37655.765 
   42400    301.09277   -1351.0208    410.58046    409.40025    607.09841    37655.765 
   42500    307.54418   -1343.3422    392.71158    428.13247    896.81975    37655.765 
   42600     301.0332    -1356.273    395.00772    388.30822    429.39739    37655.765 
   42700    311.48101   -1353.2568    402.46725    445.62292    62.239891    37655.765 
   42800    313.95741   -1370.9179    375.56957     412.1662    642.50635    37655.765 
   42900    303.98094   -1353.9432    398.15735    407.00277     413.4849    37655.765 
   43000    309.20323   -1345.3406      383.306    424.16622    110.16029    37655.765 
   43100    311.61965   -1315.5225    392.65647    474.16799    144.25722    37655.765 
   43200    301.36523   -1313.6391    403.30139    440.72429  -0.94377535    37655.765 
   43300    301.83449   -1327.9813    376.61027    401.79475   -183.72403    37655.765 
   43400    296.11817   -1304.3174    387.40034    410.62171   -400.90402    37655.765 
   43500    307.50525   -1313.1033    390.92162    456.40691   -376.21549    37655.765 
   43600    307.83029   -1350.2275    397.78247    427.60073   -176.58593    37655.765 
   43700    293.38909   -1343.0812    400.45107    372.67374   -480.49929    37655.765 
   43800    301.66935   -1310.4506    390.95157    432.92636   -135.44993    37655.765 
   43900    302.85322   -1324.3129    405.70421    439.12416    22.502539    37655.765 
   44000    300.56568    -1386.994    400.65306    361.13658   -87.194609    37655.765 
   44100     303.7001   -1348.3087    396.04835    409.26926    74.270619    37655.765 
   44200    293.96064   -1362.6797    414.23181    369.41836   -199.85532    37655.765 
   44300    304.25271   -1405.8577    384.02698    342.17622    209.86447    37655.765 
   44400    290.87677   -1377.3484    396.59388    323.28624    72.417925    37655.765 
   44500    303.30376   -1420.2785    391.37021    330.84437    665.68994    37655.765 
   44600    301.97798   -1392.5449    381.84476    343.10889   -203.30704    37655.765 
   44700    296.76167   -1384.2993    386.51562    332.63996    230.41346    37655.765 
   44800    295.13219   -1350.7521      384.619    356.98529   -77.940923    37655.765 
   44900    296.33676   -1379.6888    381.32142    330.15128   -290.56603    37655.765 
   45000    292.13619   -1345.1556    391.39266    355.92395   -712.97818    37655.765 
   45100    296.84651   -1366.4249    396.29022    360.66932    -393.8875    37655.765 
   45200    305.31987    -1381.177    374.62684    362.24102   -135.18216    37655.765 
   45300    292.97887   -1382.3188    385.21908    316.36513      593.199    37655.765 
   45400    301.00605   -1399.8374     383.5464    333.16077    342.31618    37655.765 
   45500    301.85477   -1353.8853    390.77175    390.14319   -133.78852    37655.765 
   45600    311.57623    -1315.431    412.68842    494.09676   -385.43998    37655.765 
   45700    294.95476   -1334.4039    415.76292    403.68202   -515.13269    37655.765 
   45800    314.22125   -1299.7723    398.20423    507.12929   -236.03527    37655.765 
   45900    297.63495   -1368.9712    399.36529    364.73276   -909.80598    37655.765 
   46000    301.46541   -1327.1707    404.55056    428.89097   -735.14598    37655.765 
   46100    298.61976   -1340.9901    417.63297    415.39658   -792.44992    37655.765 
   46200     302.6209   -1331.3705    397.67537    422.99622   -674.52384    37655.765 
   46300    299.56013   -1338.6103    408.49827    412.85747   -448.35124    37655.765 
   46400     299.3078   -1384.9989    400.06466      356.904   -325.77017    37655.765 
   46500     293.2558   -1363.7859    391.94707    342.86751   -505.76869    37655.765 
   46600    305.30481    -1356.404    398.25956    410.57926   -272.07307    37655.765 
   46700     303.3752   -1312.3627    414.08562    461.79593   -28.599623    37655.765 
   46800    295.95379   -1326.6876    414.92984    415.04405    255.04595    37655.765 
   46900    290.17301    -1306.791    406.22863    400.32334    162.99057    37655.765 
   47000    299.53479   -1327.4084    412.83288    428.28033    4.3193641    37655.765 
   47100    310.30428   -1299.8337    406.91321    498.21654   -90.494067    37655.765 
   47200    297.94446   -1308.0384    407.94731    435.63512   -177.80563    37655.765 
   47300    295.17008   -1363.7412    402.95301    362.50005   -212.98706    37655.765 
   47400    291.17845   -1340.8716    416.03678    380.55844   -443.79003    37655.765 
   47500    297.70145   -1327.9366    399.86881    406.56901   -110.22792    37655.765 
   47600    299.55854   -1363.0014    413.31868    393.27966    91.717607    37655.765 
   47700     295.3874    -1356.405    396.70395    364.56149    2.0828816    37655.765 
   47800    292.93258   -1341.9376    399.84133    371.16106   -310.76908    37655.765 
   47900    306.23748   -1360.2276    408.00832    420.68565    353.17796    37655.765 
   48000    300.11825   -1373.8688    411.62054    383.22335   -5.3008942    37655.765 
   48100    302.14066   -1386.7201    410.50451    378.32277   -56.199137    37655.765 
   48200    308.69755   -1358.9606    415.90625    440.87949     154.4478    37655.765 
   48300    295.98683   -1390.2343    393.93346    330.64907   -84.488581    37655.765 
   48400    315.12461   -1340.7583    404.26204    476.25092    622.43026    37655.765 
   48500    290.37896   -1352.6971    414.53747    363.64944   -576.01068    37655.765 
   48600    286.64819   -1339.4101    412.80821    358.48165    121.97487    37655.765 
   48700    304.15989   -1394.7641    402.50146     371.3282    582.52256    37655.765 
   48800    302.03207   -1427.9765    414.76557    340.84063    651.11882    37655.765 
   48900    298.90687   -1368.9701    418.32659    389.39732    382.43208    37655.765 
   49000    305.17788   -1391.0212    407.35258    384.48597    239.38721    37655.765 
   49100    295.90912   -1406.8532    390.22115    309.96947    511.75244    37655.765 
   49200    290.43798   -1415.3138    387.47804    274.23787    76.571974    37655.765 
   49300    293.97959   -1394.4852    410.86438    334.33029   -202.97549    37655.765 
   49400    302.07251   -1396.0778    400.39238    358.54742    66.128019    37655.765 
   49500    299.99051   -1419.4947    434.27512    359.67942      81.3873    37655.765 
   49600     298.2579   -1411.6994    395.97126    321.40324   -169.75513    37655.765 
   49700    299.91748   -1401.0737     384.4378    327.93564   0.56392011    37655.765 
   49800    290.75235   -1390.5196    425.46026    338.42369    514.98774    37655.765 
   49900    297.47505   -1399.8511    395.56797    329.33868    460.53638    37655.765 
   50000    311.23794   -1443.4072    406.42099    358.33658    238.05068    37655.765 
   50100    292.99399   -1377.6406    407.87616    343.76811    252.87133    37655.765 
   50200    302.77819   -1438.7787    378.19194    296.80971    299.13759    37655.765 
   50300    313.55844    -1356.662    390.71831    439.78223    114.32375    37655.765 
   50400    303.44029    -1385.841    381.49951    356.02334    478.31334    37655.765 
   50500    300.74971    -1372.802    414.68404     390.1846   -570.80572    37655.765 
   50600     303.6799   -1332.5878     402.0149    430.86616   -190.10191    37655.765 
   50700    296.44706   -1353.8593    412.06715    387.22109   -131.09805    37655.765 
   50800    302.72941   -1367.7915    419.62225     409.0086   -521.17372    37655.765 
   50900    297.63922     -1353.56    393.05367    373.85147   -233.07185    37655.765 
   51000    304.46301    -1365.286    396.58113     396.2449    271.46701    37655.765 
   51100    298.07616   -1350.2591     424.0668    410.12434   -707.66502    37655.765 
   51200    302.63819    -1359.982    418.38783     415.1747   -71.512279    37655.765 
   51300    295.39923   -1352.8303    407.40177    378.88705   -453.52672    37655.765 
   51400    291.01121   -1363.8334    415.81374    356.62388   -592.39964    37655.765 
   51500    305.08404   -1369.9545    416.11378    413.89319    48.638263    37655.765 
   51600    291.87295   -1343.3806    425.26183      390.388    -528.7586    37655.765 
   51700    299.07877   -1373.5747    428.65637    395.89314    191.82056    37655.765 
   51800    294.26379   -1381.7389    413.93935     351.4257    54.540566    37655.765 
   51900    300.74755   -1386.8911      416.144    377.54571    573.21529    37655.765 
   52000     300.7683    -1363.743    407.52116    392.16407     423.1031    37655.765 
   52100    299.56937   -1406.2394    426.54409    363.31567    489.85747    37655.765 
   52200    292.48483   -1377.4681    421.55046    355.33225    547.48444    37655.765 
   52300    297.71818   -1376.8458    421.38868     379.2547    549.25468    37655.765 
   52400     298.5302   -1382.9839    421.38693    376.75522    611.47102    37655.765 
   52500    292.79742   -1386.8478    419.87886    345.68234    673.92733    37655.765 
   52600    305.71843   -1359.5876    416.58746    427.57782    346.06868    37655.765 
   52700     301.2797   -1388.0052     434.6831    397.35642     557.6857    37655.765 
   52800    299.53064    -1389.817    432.91516    385.93548    85.594967    37655.765 
   52900    308.01161   -1331.8225    410.71766    459.75382   -163.61403    37655.765 
   53000    296.46399   -1318.1291    421.49485    432.45483    15.506657    37655.765 
   53100    290.04962   -1346.8469    422.01605    375.50165    -179.2084    37655.765 
   53200    294.96505   -1333.2025    430.75165    419.91825   -252.89777    37655.765 
   53300    301.56446    -1364.848    418.37512    405.48233   -577.56815    37655.765 
   53400    304.48947   -1386.6776    427.77933    406.17019   -27.916131    37655.765 
   53500    297.38756   -1331.9787    420.98136    422.23225   -163.81191    37655.765 
   53600    297.70234   -1339.5318    420.69292     415.8019   -267.08809    37655.765 
   53700    304.60766   -1395.9515    418.94148    388.58829   -117.26176    37655.765 
   53800    304.30417   -1389.6696    436.71262    411.28065    12.946241    37655.765 
   53900     308.9523   -1404.7856    419.50864    399.79888    73.353353    37655.765 
   54000     300.6635    -1375.241    426.90452    399.57961    102.33305    37655.765 
   54100    292.60134   -1359.1569    397.45659    350.07199   -911.94053    37655.765 
   54200    299.38053   -1374.2883    396.95508    364.83108   -121.02637    37655.765 
   54300      291.371   -1367.1976    429.53728    368.59618    3.9435293    37655.765 
   54400    298.30522   -1396.4964    436.49745    377.34465   -194.87571    37655.765 
   54500    295.43551   -1373.8782    462.49427    413.09432     258.1565    37655.765 
   54600    307.92047   -1362.6074    435.71461    453.55731    300.91966    37655.765 
   54700    295.93009   -1364.8732    424.34589    386.16817    84.440686    37655.765 
   54800    298.07697   -1350.6949     463.5322    449.15758    144.86883    37655.765 
   54900    313.41094   -1398.2912    431.58511    438.35845    441.70264    37655.765 
   55000    305.33422   -1374.3229    428.39529    422.92793    520.99707    37655.765 
   55100    299.52409   -1385.8157    398.98931    355.98152    301.23799    37655.765 
   55200    300.50104   -1398.2254    421.52871    370.49098    217.16192    37655.765 
   55300    292.68375   -1381.8718    413.87706    344.14697    154.05687    37655.765 
   55400    289.84427   -1395.3294    414.72101     318.8036    29.376302    37655.765 
   55500    299.58536    -1405.664    425.09753    362.51619    213.78784    37655.765 
   55600    298.05046   -1399.0198    442.94451    380.12611    265.33559    37655.765 
   55700     293.8469   -1374.5392    444.33292    387.15004   -68.240864    37655.765 
   55800    306.80166   -1388.1893    423.19639    410.44139    85.508257    37655.765 
   55900    309.16115   -1370.9383    438.31199    453.38594   -225.14227    37655.765 
   56000    296.41418   -1384.2462    410.83085    355.45046   -653.06003    37655.765 
   56100    299.15837   -1343.8047     424.5041    421.86773   -177.09229    37655.765 
   56200    298.59618   -1405.6939    407.26363    340.21775    122.41455    37655.765 
   56300    291.94033   -1395.1419    398.53883    312.20578   -62.653248    37655.765 
   56400    313.57238   -1380.0194    426.74662    452.51551    614.66297    37655.765 
   56500    310.03661    -1354.993    449.12125    484.06522    932.41817    37655.765 
   56600    290.89886   -1390.6534    431.97792    345.46437    936.36596    37655.765 
   56700    296.96554   -1387.4191    415.00771    358.92622    456.17855    37655.765 
   56800    304.32388   -1364.4682    394.81601    394.67382    314.42427    37655.765 
   56900     307.3284   -1409.2579    399.67385    368.21166    374.04567    37655.765 
   57000    298.21048   -1357.1968     441.6236    421.34558    305.96829    37655.765 
   57100    302.05059   -1350.8329    441.59909    444.90079    58.084899    37655.765 
   57200    300.28694   -1365.4791    409.83966    390.58843   -146.42695    37655.765 
   57300    296.75199   -1393.9233     443.0007    379.45763    36.990955    37655.765 
   57400    302.21306   -1387.1607    415.69854    383.40074   -374.93567    37655.765 
   57500    301.16582   -1387.4576     422.5061    385.21656    23.446488    37655.765 
   57600    291.90883   -1400.1859    414.82527    323.30706    314.71353    37655.765 
   57700     295.4344   -1416.8731    399.14043     306.7406    199.57449    37655.765 
   57800     293.7612   -1384.3845    414.69163    347.27922    157.16896    37655.765 
   57900    308.92121   -1393.2164    417.46186    409.18195    132.39217    37655.765 
   58000    313.84533   -1404.1947    408.29221    411.10958    321.09985    37655.765 
   58100    292.09235   -1395.8562     424.3594    337.99357    266.70471    37655.765 
   58200    289.76802   -1437.3726    445.86266    307.56019    630.99474    37655.765 
   58300    308.64511   -1454.4329    424.89002    354.15585    591.50878    37655.765 
   58400    299.96522   -1394.1262    413.69792    364.35731    85.970819    37655.765 
   58500    301.08258   -1369.6048    443.29335    423.48338    265.81104    37655.765 
   58600    295.22662   -1414.3432     436.1249    345.32342    596.46422    37655.765 
   58700    300.61302   -1411.7449    414.33117    350.27605    387.16741    37655.765 
   58800    299.71954   -1406.9862    421.09191    357.78985   -16.459608    37655.765 
   58900    297.56003    -1422.506    411.02715     322.5239    420.09076    37655.765 
   59000    299.67654   -1429.7953    411.65011    325.34614    56.219938    37655.765 
   59100    302.16378   -1379.9694    439.29246     413.9651    179.04948    37655.765 
   59200    305.97355   -1423.7087    419.25795    367.27104    261.31882    37655.765 
   59300    298.39725    -1444.115    444.54041     338.1816    3.2958392    37655.765 
   59400    308.46641   -1465.3002    405.68374    323.28112    180.07284    37655.765 
   59500    291.24131   -1434.5008    439.74379     310.9181   -231.91603    37655.765 
   59600    295.11672   -1424.5638    441.30433    339.78958   -249.42979    37655.765 
   59700    311.47562   -1447.9856    424.92276     373.3255    23.276134    37655.765 
   59800     298.0402   -1434.1864     423.3754    325.34441    57.485491    37655.765 
   59900     299.3102   -1452.1871    419.67481    309.33677   -856.42622    37655.765 
   60000    297.86012   -1444.8468    420.81133    311.31264   -787.20269    37655.765 
   60100    305.02894   -1467.9503    417.34317    316.87979    193.90826    37655.765 
   60200    291.33147   -1436.4619    436.65766    306.27501    59.969181    37655.765 
   60300    307.04669   -1467.9912    411.51056    320.05214    151.33927    37655.765 
   60400    294.07616    -1499.684    438.94271     257.6428    581.99791    37655.765 
   60500    297.13574    -1469.327    450.37412    313.14772    658.72618    37655.765 
   60600    302.80785   -1419.4972    431.25392    369.28616    247.94732    37655.765 
   60700    298.67762   -1449.3723    429.78555    319.42629    627.16434    37655.765 
   60800     293.8665   -1471.0164    454.16782    300.59561    277.95501    37655.765 
   60900     292.9773   -1462.2409    414.52099    265.73789    22.392866    37655.765 
   61000    306.44757   -1437.6876    414.68343    350.84266   -232.38016    37655.765 
   61100    290.43464   -1456.4558    412.45763    258.06045   -485.96813    37655.765 
   61200    299.55929   -1461.9145    421.66743    302.71864   -336.30344    37655.765 
   61300    307.00396   -1427.2616    416.26291    365.34252   -155.52992    37655.765 
   61400     296.3172   -1409.6253    430.15918    348.96491    117.91006    37655.765 
   61500    292.49507   -1407.0064    415.06923    319.35871   -141.41725    37655.765 
   61600    301.78042   -1428.8917    426.34342    350.37502    292.57451    37655.765 
   61700    309.00993    -1419.154    447.59758    413.77786   -5.1138092    37655.765 
   61800    305.87584   -1456.8795    420.96998     335.3742   -820.90061    37655.765 
   61900    302.34901   -1450.1529    464.83621    370.15578   -680.17595    37655.765 
   62000    300.86643   -1394.6524    421.48287    375.65626   -195.77143    37655.765 
   62100    297.00232    -1396.614    412.44679     347.3353   -215.84897    37655.765 
   62200    299.87614   -1394.3879    438.47793    388.47622    338.86904    37655.765 
   62300    305.27568   -1445.6325    410.22854     333.1891    657.29735    37655.765 
   62400    298.40468   -1432.5129    457.25076    362.52734    359.05369    37655.765 
   62500    292.09684   -1405.4498    423.37449     327.4352    514.92499    37655.765 
   62600    294.01623   -1405.5433    443.24983     355.8219     494.7025    37655.765 
   62700    307.25568   -1430.8787    449.00588    395.59689    292.81347    37655.765 
   62800    299.96682   -1384.8705    429.25324    389.17545    445.47078    37655.765 
   62900     302.9244   -1389.9606    433.51646    401.60791   -29.536183    37655.765 
   63000    304.29606   -1409.4637    440.03067    394.76824    246.95856    37655.765 
   63100    297.98386   -1439.4928    421.45084     317.8609    140.47837    37655.765 
   63200    302.45294   -1416.4463    412.93785     352.4299   -147.59422    37655.765 
   63300    280.05956   -1426.1792    430.98881    260.35536   -397.77362    37655.765 
   63400    304.23278   -1383.6065    436.10737    416.41848   -29.352467    37655.765 
   63500     293.3049   -1402.3111    424.99961    337.61497   -114.27525    37655.765 
   63600    298.01048   -1420.0227     423.0681    339.06765    -12.72656    37655.765 
   63700    301.49242    -1454.751    431.91066    328.79187    525.22198    37655.765 
   63800    295.84969   -1453.5449    456.16829    328.95844    541.16757    37655.765 
   63900    302.95437   -1448.6539     443.3541     352.8865    677.08824    37655.765 
   64000     296.9105   -1426.6799    435.97705    340.38799    104.65868    37655.765 
   64100    297.85417   -1397.9448    441.91984    379.29644    171.04823    37655.765 
   64200    298.76041   -1441.0229    454.25535    352.61674   -148.96649    37655.765 
   64300     301.6389   -1458.1707    430.09807    324.21626    178.09634    37655.765 
   64400    318.30436   -1431.8539    426.63164    421.78027    395.35565    37655.765 
   64500    292.42757   -1455.8559    435.89954    291.03685    455.82661    37655.765 
   64600    307.26741   -1478.7678    417.66477    316.41924    76.029749    37655.765 
   64700    303.30406   -1485.2804     426.0537    300.52732    377.13315    37655.765 
   64800    305.14539   -1503.3148    426.30533    290.99953   -31.837973    37655.765 
   64900    300.73526   -1449.0176    432.03011    331.25022    76.134014    37655.765 
   65000    292.15152   -1476.4225    458.28102    291.61417    10.708222    37655.765 
   65100    308.50399   -1463.8458     420.5362    339.75641    93.917961    37655.765 
   65200    308.62932   -1488.9996    411.74848    306.37676    313.53879    37655.765 
   65300    309.74525   -1546.4922     424.8477    266.98635    869.32892    37655.765 
   65400    301.62159   -1459.2918    438.49007    331.40959    371.21443    37655.765 
   65500    298.37224   -1445.4425    427.58191    319.78348    133.13361    37655.765 
   65600    299.05597   -1502.1734    426.73026    265.26613    98.604994    37655.765 
   65700    291.89579   -1492.4811    443.51517    259.64326    31.509022    37655.765 
   65800    308.69895     -1482.31    457.95392    359.58396   -137.15335    37655.765 
   65900    302.03928   -1462.4247    448.47361    340.13283    18.732424    37655.765 
   66000    297.15994   -1484.0372     449.9372    298.10908     224.0425    37655.765 
   66100    301.91676   -1469.9723    428.59375    312.15604    -62.57507    37655.765 
   66200    299.05315   -1481.9992    457.36363    316.06109    64.607156    37655.765 
   66300    302.36797   -1495.8183    435.64639    295.38558   -303.49682    37655.765 
   66400    306.58902   -1483.3231    417.89434    309.05222   -40.452512    37655.765 
   66500    299.65085   -1502.0087     427.5744     268.9419   -698.69307    37655.765 
   66600    292.34322    -1496.257    416.82589    231.18401   -1040.3748    37655.765 
   66700    287.50691   -1487.4622    403.94864    205.41965   -539.80284    37655.765 
   66800    293.95921   -1482.0641    419.82818    255.62386   -217.82888    37655.765 
   66900    291.71153    -1519.595    429.74618     217.9343   -12.807925    37655.765 
   67000     298.1814   -1492.9321    431.35614     275.2125   -68.705516    37655.765 
   67100    301.23197   -1493.7776     426.8955    283.58249   -461.12308    37655.765 
   67200     294.1025   -1451.8493    425.20593    291.85875   -313.71846    37655.765 
   67300    299.60525    -1495.579    424.85542    272.44817    220.83473    37655.765 
   67400    294.50839   -1465.8982    423.98383    278.40746    258.82644    37655.765 
   67500    308.49555   -1505.9757    454.36533    331.41785    168.04186    37655.765 
   67600    308.26719   -1497.3218     442.1325    326.81519    481.31821    37655.765 
   67700    301.11401   -1463.1201    436.69116    323.50684    997.09158    37655.765 
   67800    294.83798   -1460.8037    427.49985    288.49562    318.14446    37655.765 
   67900    306.90493   -1488.4148    440.22927    327.71171     442.5077    37655.765 
   68000    301.75009   -1508.4241    422.43369    266.79692    457.27913    37655.765 
   68100    295.38428    -1469.109    432.49008    287.62962    768.88513    37655.765 
   68200    301.36926   -1474.7524    427.51608    303.84382     404.2028    37655.765 
   68300    307.77282   -1476.3678    452.39097    355.81126    268.34005    37655.765 
   68400    289.63207   -1465.6567    461.08409    293.88799    228.13066    37655.765 
   68500    290.61344   -1509.4716    444.44249    237.83117    348.75964    37655.765 
   68600    305.43754   -1472.4534    423.76562    320.63093   -39.229313    37655.765 
   68700    294.32039    -1489.134    431.89045    262.23552    45.976517    37655.765 
   68800    300.11065   -1486.1666    419.77797    279.04892   -202.91984    37655.765 
   68900    308.25919   -1400.5087    441.21815    422.67801   -70.536574    37655.765 
   69000    307.14258   -1474.7849    423.72916    325.90687   -264.54278    37655.765 
   69100    289.19542   -1433.0927    461.15342    324.56373    82.076271    37655.765 
   69200    304.42361   -1447.0499    438.00916     355.7324    184.94789    37655.765 
   69300    307.33568   -1427.0963    435.83663    386.56867   -9.9808784    37655.765 
   69400    306.91298    -1443.341    421.53786    354.13021   -576.47812    37655.765 
   69500    295.32446   -1416.7245    453.32729    360.58317   -840.88398    37655.765 
   69600    295.77992   -1441.0306    433.51324    318.50489    -504.3684    37655.765 
   69700    302.30869    -1397.644    450.25741    407.90511    98.335761    37655.765 
   69800    296.57458   -1441.3264    453.27235    341.53081    456.01015    37655.765 
   69900    295.99534   -1464.4561    455.98542    318.51737    280.83625    37655.765 
   70000    295.66335   -1452.6402    457.21494    330.07443    543.10603    37655.765 
   70100    312.58174   -1458.8797    433.84785    376.31529    223.79155    37655.765 
   70200    294.05003   -1431.7442    452.13785    338.66064   -199.43432    37655.765 
   70300    305.06756   -1466.1029    432.07924    333.63638    321.18348    37655.765 
   70400    293.55231   -1446.6129    430.32155    299.74424    386.06955    37655.765 
   70500     306.4212   -1436.3782    398.44411    335.79451    97.020202    37655.765 
   70600    308.04558   -1432.4128    445.82032    394.41848    315.77617    37655.765 
   70700    304.99754   -1467.8053    437.25939    336.80025    579.10315    37655.765 
   70800    298.08059   -1423.2973     420.9573    333.99654    250.24252    37655.765 
   70900    299.91616   -1441.5343    420.22783    323.25914    86.133917    37655.765 
   71000    298.06004   -1463.3378    444.56855    317.47516   -398.61498    37655.765 
   71100    304.32364   -1427.5474    452.96557    389.74316   -344.65595    37655.765 
   71200    305.90206   -1442.6889     448.9569    377.66926   -431.09699    37655.765 
   71300    309.10646   -1448.4312    435.14364     372.4795   -53.970317    37655.765 
   71400     299.9329   -1435.0547      435.793    345.37898   -283.83587    37655.765 
   71500    284.76557   -1472.4199    409.20906    213.43263   -381.78069    37655.765 
   71600    301.82026    -1477.575    429.33264    304.85963   -126.85884    37655.765 
   71700    305.60928    -1468.739    452.83753    354.18717   -253.75641    37655.765 
   71800    289.54077   -1469.7128    421.86208    250.20064   -241.62628    37655.765 
   71900    303.07626   -1479.8663    393.40575    272.27223   -287.06216    37655.765 
   72000    301.55804   -1529.0718    429.50353     252.3581   -320.35883    37655.765 
   72100    306.24554   -1493.9315    428.38089     307.3905    192.08969    37655.765 
   72200    303.93364   -1523.4424    421.23618     260.3703    35.682673    37655.765 
   72300    298.77414   -1487.1171    423.07419    275.40287   -63.785453    37655.765 
   72400    289.48822   -1502.6582    429.65463    224.81221   -36.333176    37655.765 
   72500    304.26582   -1479.3531    429.06762    313.78025    512.34911    37655.765 
   72600    305.02248   -1491.4454    400.24225    276.25478    371.28638    37655.765 
   72700    301.24461   -1490.4057    447.36638    307.48189    421.64483    37655.765 
   72800    305.72553   -1461.2916    440.80783    350.12606    95.032183    37655.765 
   72900    305.55307   -1455.9998    415.39446    329.23133    -80.27199    37655.765 
   73000    298.03338   -1456.2292     430.2461     310.1418    200.70095    37655.765 
   73100    295.52854   -1472.7288      438.304    290.47049    546.93359    37655.765 
   73200    301.80258   -1462.1262    438.68942    329.58598    582.77352    37655.765 
   73300    295.24045    -1451.986    455.56073    327.17844    989.81927    37655.765 
   73400    301.90089   -1455.1624    432.53106    330.83212    674.60358    37655.765 
   73500    294.43431   -1471.9311    457.52029    305.57891    288.29218    37655.765 
   73600    302.10455   -1437.3168    445.46093    362.52062    552.59329    37655.765 
   73700    299.85011   -1455.2998    455.39361    344.36333   -159.63858    37655.765 
   73800    301.32037   -1439.2529    406.34154    317.94948   -506.67152    37655.765 
   73900    288.38271   -1457.7538    468.74675    303.85255   -425.90874    37655.765 
   74000    290.04267   -1495.9233    456.26434    260.64243     410.1615    37655.765 
   74100    294.66158    -1439.457    423.71566     305.2673   -417.58576    37655.765 
   74200    295.71828   -1445.3391    456.83757    337.24442   -438.75976    37655.765 
   74300      304.187   -1489.2332    447.96449    322.44368      14.5792    37655.765 
   74400    293.77253   -1475.6068    446.73028    288.14637   -312.34329    37655.765 
   74500    292.59846   -1489.5285    435.71784    257.94873   -202.09919    37655.765 
   74600    299.69588   -1459.6442    437.82221    321.75608    -302.2264    37655.765 
   74700    307.54799   -1476.5217    438.69954    340.95805   -20.801358    37655.765 
   74800    309.06712   -1491.7209    423.75619     317.6259   -420.00341    37655.765 
   74900    292.93257   -1467.1887    447.53718    293.60569    26.308488    37655.765 
   75000    305.84842   -1486.7368    444.73134    329.15529    451.39247    37655.765 
   75100    314.17725   -1458.2359    482.41407    432.67826     401.7071    37655.765 
   75200    297.19946   -1455.8017    443.76379    320.34836   -91.156721    37655.765 
   75300    295.09997   -1482.3967    429.13643    269.71368   -36.171168    37655.765 
   75400    301.97607   -1465.2289    445.02193     333.5935    404.63022    37655.765 
   75500     307.1577   -1445.2335    495.23818    427.03512    27.578582    37655.765 
   75600    298.20499   -1424.9444    459.62949    371.57931    108.92088    37655.765 
   75700    307.54304   -1493.4895    422.26109    307.52959    168.59385    37655.765 
   75800    295.27954   -1413.6144    471.84778    382.01239   -384.33933    37655.765 
   75900    306.40948   -1442.4251    448.42618    379.67713    213.38538    37655.765 
   76000     292.6893   -1434.7772    452.62014    330.00961    381.11649    37655.765 
   76100    295.86325   -1421.9924    460.26738    364.67089    4.7012228    37655.765 
   76200    307.94846   -1436.8053    451.60067    395.37098    341.40034    37655.765 
   76300    298.13325   -1434.0607    434.60737    337.11927    -351.7652    37655.765 
   76400    294.67856   -1430.4308    456.07645    346.73035   -171.23577    37655.765 
   76500    297.98202   -1444.7293    450.37651    341.54186   -144.76383    37655.765 
   76600    299.92442   -1457.8073    450.43815    337.23349   -432.42704    37655.765 
   76700    310.02437   -1475.4004    468.68069    383.16238   -126.20658    37655.765 
   76800    292.87069   -1497.4475    457.06989    272.60216    692.01469    37655.765 
   76900    303.41294   -1473.0956    454.47562    341.62223    558.71631    37655.765 
   77000     313.7416   -1477.6655    440.14318    369.02469    409.70323    37655.765 
   77100     296.6015   -1451.9938    424.83625    302.54803   -96.903785    37655.765 
   77200    306.99324   -1485.1583    478.10727    369.24212    392.92236    37655.765 
   77300    295.17148   -1510.6517     435.2565    247.89941    619.31885    37655.765 
   77400    296.44569   -1525.3214    410.64218    214.32777    750.97519    37655.765 
   77500    294.18898   -1480.2987    435.62582    274.21703    792.09111    37655.765 
   77600    308.30305    -1476.786    446.04323    351.42246    559.66366    37655.765 
   77700     310.3029   -1543.0193    449.87121    297.98276    189.49358    37655.765 
   77800     295.7694   -1522.0856    439.13962    243.02911    980.61904    37655.765 
   77900    307.25098    -1516.224    445.04676    306.27144    569.40172    37655.765 
   78000    300.78368   -1513.9612    447.66089     282.1545    253.73134    37655.765 
   78100    304.29706   -1482.6555    439.04231    320.59264   -161.42751    37655.765 
   78200     309.6986   -1475.3131    419.68237    332.79096    -268.8405    37655.765 
   78300    301.57218   -1471.7327     421.7756    302.03267     -226.622    37655.765 
   78400    294.26213   -1440.5776    449.16306    327.80327   -506.32949    37655.765 
   78500    304.70143   -1467.2346     436.1875    334.97158    109.81107    37655.765 
   78600    303.80163   -1456.7465    446.66269    351.90087   -13.900697    37655.765 
   78700    299.79741     -1456.79    452.07241    339.31563    172.11256    37655.765 
   78800     289.7124   -1468.2304    438.98155     269.5719   -296.64847    37655.765 
   78900    296.92765   -1434.1228     463.1191    360.16398    173.46585    37655.765 
   79000    301.70718   -1459.6958    451.34504    344.24423    608.15182    37655.765 
   79100    300.06456   -1472.8328    433.98523     306.3833    218.17189    37655.765 
   79200    310.37733   -1476.1505    443.09231    358.40631    461.49478    37655.765 
   79300    299.12514   -1448.5016    451.59803    344.11585    193.22248    37655.765 
   79400    310.26347   -1474.5375    461.67344    378.08995    -276.2512    37655.765 
   79500    295.19447   -1441.5227    461.48908    343.36403   -283.71343    37655.765 
   79600     306.6926   -1412.9045    455.49669    417.53754    301.97709    37655.765 
   79700     292.6352   -1462.2055    439.26618    288.98473   -62.699224    37655.765 
   79800    315.87987   -1508.4477    456.93369    364.61917    45.656801    37655.765 
   79900    304.10052   -1444.7429    462.32524    380.90699    507.62463    37655.765 
   80000     294.5712   -1490.9237    422.18821    251.86797    166.13987    37655.765 
   80100    288.37341   -1487.4716    460.96873    266.31501    61.458604    37655.765 
   80200    306.13259   -1452.7376    460.98577    380.68293    483.29291    37655.765 
   80300    297.15128   -1450.3411    442.10896    323.93812    495.28867    37655.765 
   80400    296.52477   -1465.3701    471.25507    335.24656    234.01425    37655.765 
   80500     302.1147   -1436.6623    441.88767    359.64735    704.58135    37655.765 
   80600    308.45783   -1481.5942    444.97491    346.23984    693.73688    37655.765 
   80700    304.16369   -1490.1383     438.6994    312.16897     858.5196    37655.765 
   80800    301.37328   -1476.1081    472.62011    347.61017    809.74207    37655.765 
   80900    307.48429    -1439.498     461.7764    400.77301    709.15545    37655.765 
   81000    301.07824   -1503.2865     424.7964    271.28533    473.57232    37655.765 
   81100    298.27651   -1457.5821    447.37763    327.01036     185.2135    37655.765 
   81200    299.05569   -1447.2716    458.96361    352.40001   -320.78047    37655.765 
   81300    312.97381   -1507.5095    414.21175    309.80707   -292.03032    37655.765 
   81400    297.69019   -1464.5033    449.42705    319.51004   -401.47477    37655.765 
   81500    296.47475   -1438.4151    458.19656     348.9188   -141.67054    37655.765 
   81600    299.64351   -1457.8792    471.84928    357.31334    60.166746    37655.765 
   81700    307.08245   -1409.8712    450.45579    417.27775   -12.070267    37655.765 
   81800    290.99047   -1420.5367    437.65801     321.6718   -468.52507    37655.765 
   81900    289.40215   -1409.2301     463.7608    351.96055   -98.195152    37655.765 
   82000    300.78689    -1454.146     460.7001    355.02329    -291.6432    37655.765 
   82100    289.32075   -1449.9059    458.47583    305.63491   -224.65523    37655.765 
   82200    295.82136   -1459.4004    427.66854    294.47626   -339.17546    37655.765 
   82300    296.81459   -1457.3641    447.60034    320.89705   -905.14381    37655.765 
   82400    310.21115   -1473.6444    441.60982    358.68494   -220.61382    37655.765 
   82500    289.95018   -1442.0899    440.76108    298.55792    101.52316    37655.765 
   82600    293.83832   -1464.1439    444.01124     297.1852   -36.790811    37655.765 
   82700     291.3191   -1487.3508    436.60398    255.27701    115.43666    37655.765 
   82800    294.76503   -1453.2334    422.68249    290.92152    268.95032    37655.765 
   82900    298.92979   -1468.5931    427.79045    299.34096   -73.752871    37655.765 
   83000    294.40611     -1472.31    442.27244    289.82577   -78.112651    37655.765 
   83100    287.94949   -1424.8926    452.36436    318.38914    168.12313    37655.765 
   83200    302.28969   -1451.2195    432.66111    336.64813    69.355502    37655.765 
   83300     304.5208   -1466.4483    454.33703    353.09759    414.94799    37655.765 
   83400    293.96513   -1491.1124    453.74875     280.5227    195.46748    37655.765 
   83500    300.58795   -1464.7391    450.04845    332.88669    575.14696    37655.765 
   83600    296.67524   -1465.5169    452.10954    316.62876    199.73907    37655.765 
   83700    300.49315   -1448.3718    440.24825    339.02884    253.59168    37655.765 
   83800    301.23673   -1477.4109    447.16393    320.23893    307.54812    37655.765 
   83900    301.06166   -1477.7664     438.5609    310.49558   -171.16296    37655.765 
   84000    297.47096   -1469.9157    435.03709     298.7248   -465.15466    37655.765 
   84100     307.0301   -1443.2718    443.39977    376.58639   -744.36005    37655.765 
   84200    290.06979   -1414.4839    481.38979    367.32889    -442.3105    37655.765 
   84300    303.18788    -1484.777    431.12794    305.58411    232.42857    37655.765 
   84400    296.83003   -1483.8405    437.06648    283.95603    3.5650661    37655.765 
   84500    299.53311   -1477.5838    445.56337     310.8279   -295.13134    37655.765 
   84600    306.42677   -1512.9052    423.96507     284.8134   -135.64755    37655.765 
   84700     308.3614   -1473.7134    427.73676    336.45013    192.08797    37655.765 
   84800     294.4359   -1451.9762    435.64632    303.66702   -103.54151    37655.765 
   84900    300.54743   -1450.0835    453.65625    350.96844    143.28922    37655.765 
   85000    303.11864    -1465.372    446.37191    339.92275   -83.218714    37655.765 
   85100    302.39455   -1442.7698    431.76667    344.67344   -212.10739    37655.765 
   85200    314.24858    -1469.309    433.63514    373.14593    204.53533    37655.765 
   85300    298.59702   -1440.7662    438.06445    335.95003    243.24151    37655.765 
   85400    293.10121   -1490.3243    453.97827    277.66722   -213.04592    37655.765 
   85500     299.8131   -1430.9717    438.51289    351.64473   -143.27691    37655.765 
   85600    292.54315   -1458.5578    461.72018    314.67376    259.51587    37655.765 
   85700    296.12011   -1453.1981    456.12438    330.47373    402.56858    37655.765 
   85800    306.01981   -1459.3561     447.8804    360.45349       404.76    37655.765 
   85900     295.1437   -1445.8626     440.9771    318.28455    130.78314    37655.765 
   86000    296.68927   -1479.0229    436.21792    287.29402    174.21899    37655.765 
   86100    308.18982   -1457.1625    457.22187    381.71699     332.4518    37655.765 
   86200    299.39241    -1414.792    445.02669    372.45226    275.55669    37655.765 
   86300    298.06132   -1404.7446     463.1361    394.64167   -119.50004    37655.765 
   86400    295.57937   -1383.4791    479.93108    421.57519   -183.96052    37655.765 
   86500    303.46575    -1413.647    463.54105    410.37293   -136.92239    37655.765 
   86600    302.29496    -1408.695    471.64597    418.18113   -412.77975    37655.765 
   86700    303.91656   -1422.8704    446.74526    386.37482    60.486806    37655.765 
   86800     289.5956   -1451.1638    473.49768    320.63095   -302.69009    37655.765 
   86900    298.59858   -1396.5509    449.89883    392.00665   -297.32089    37655.765 
   87000    303.68868   -1408.4512    470.58778    423.61495   -530.48221    37655.765 
   87100    294.72712   -1439.1022     466.8088    349.00906   -104.78044    37655.765 
   87200    299.18099   -1410.1654    455.07728    386.18164   -196.32797    37655.765 
   87300     294.3045   -1428.8391    463.57697    354.14564   -56.925816    37655.765 
   87400    315.56199   -1427.7858    442.69758    429.61983    347.17855    37655.765 
   87500    309.79699   -1442.4527    429.08644    375.49644    626.99905    37655.765 
   87600    305.47157   -1441.9291    455.44919    382.99142    487.10273    37655.765 
   87700    298.75448   -1410.2295    446.96122     376.0894    406.59181    37655.765 
   87800    306.10323   -1431.4346    467.64342    408.51194    277.76407    37655.765 
   87900    308.03448   -1459.8886    441.13143    362.20402    332.27821    37655.765 
   88000    286.22404   -1495.7319    437.21927    224.66934    271.50197    37655.765 
   88100    301.23452   -1433.9739    436.65007    353.15222    172.39207    37655.765 
   88200     300.4093   -1434.9725    457.93766    369.74161    66.318908    37655.765 
   88300    291.87744    -1436.147    450.92393    323.30385    172.97891    37655.765 
   88400    298.09381   -1435.9978    448.25748    348.65547    71.263516    37655.765 
   88500    315.71771   -1428.8215    452.20948    438.79415    321.73947    37655.765 
   88600     304.2514   -1416.3743    453.05713    400.68399    458.05488    37655.765 
   88700    306.35295   -1467.2797    448.66251    354.80546    308.73563    37655.765 
   88800    305.03097   -1432.6984    454.63048    389.42813     493.8411    37655.765 
   88900    298.33784   -1448.0144     446.5588    336.03424    195.08107    37655.765 
[...]
  984700    291.94848    -1493.904    480.87655    295.81796   -97.629059    37655.765 
  984800    298.98689   -1505.7804    481.50438    316.12358    294.52784    37655.765 
  984900    298.91508   -1491.9888    469.82678    317.91561   -223.20978    37655.765 
  985000    289.27896   -1507.8385    450.28269    239.32183   -500.72896    37655.765 
  985100    300.30965   -1532.9479    461.38713    274.76895   -149.85656    37655.765 
  985200     308.0334   -1508.6893    450.18099    322.44802   -171.66805    37655.765 
  985300    299.76763   -1517.6878    466.79399    293.00598    288.08035    37655.765 
  985400     307.9861   -1526.4241    441.45628     295.7765    104.23555    37655.765 
  985500    294.42403   -1540.9493    449.39615    228.39048   -138.87821    37655.765 
  985600    289.79857   -1526.0224     469.7505    242.93516    159.53725    37655.765 
  985700    302.96731   -1533.6267    470.13698     294.7546    579.94812    37655.765 
  985800    305.29882   -1512.9505    483.27245    339.01879    238.86732    37655.765 
  985900    297.84397   -1483.4357    476.90262    328.74262    467.35834    37655.765 
  986000    301.40421   -1480.7427    497.45953    367.95358    299.05888    37655.765 
  986100    299.19169   -1494.6975    486.12831    332.74856    549.49197    37655.765 
  986200    303.99219   -1512.0635    482.40732    333.18284    -359.6829    37655.765 
  986300    297.06276   -1501.3263    452.43926    282.88643    32.284423    37655.765 
  986400     296.6502   -1488.3905    492.20566    333.73904    73.265035    37655.765 
  986500    295.63124   -1461.1681    462.36436    326.55202    243.07542    37655.765 
  986600    308.37336   -1500.1007    474.72137    357.10114    9.0868458    37655.765 
  986700    304.48504   -1456.9278    474.69719    382.81796   -392.83372    37655.765 
  986800     307.5339   -1471.5136    474.11015    381.31352   -419.54081    37655.765 
  986900    305.50366   -1467.6717    481.01345    382.95694   -506.32183    37655.765 
  987000    299.09387   -1457.2189    461.17213    344.83238   -177.66883    37655.765 
  987100    306.20862   -1452.5637    488.13806    408.34991   -875.05407    37655.765 
  987200    303.38813   -1449.6878    468.23436    378.67754   -919.16563    37655.765 
  987300    309.74936     -1462.78    488.20606     414.0753     -438.665    37655.765 
  987400     293.5644   -1471.5206    478.54197    323.11119    362.84691    37655.765 
  987500    302.23942   -1496.9974    485.26917    343.25285    114.19406    37655.765 
  987600     296.1533   -1506.9477    473.21791    293.96644    458.62572    37655.765 
  987700    300.55022   -1465.7072    514.72342    396.42437    247.08423    37655.765 
  987800    292.05181   -1518.2683    456.22902    247.26936    185.67358    37655.765 
  987900    299.95244   -1549.3704    484.07872    279.43658    618.45289    37655.765 
  988000    297.01234    -1563.917    468.50316    236.13359    550.54844    37655.765 
  988100    300.94782   -1564.7195    481.29257    265.76378    1006.7956    37655.765 
  988200    292.34225   -1566.6905    455.73749    199.65776    755.64719    37655.765 
  988300    307.24134   -1540.7393    502.53784    339.20393    468.67575    37655.765 
  988400      295.238   -1530.7724    457.38904    250.20942    218.92573    37655.765 
  988500    308.94198   -1553.4514     461.9018    293.48003   -831.19333    37655.765 
  988600    301.37825   -1514.3558    460.65206    297.41669   -745.94692    37655.765 
  988700    301.60298   -1513.7447    489.58773     327.9709   -1032.9692    37655.765 
  988800    298.41777   -1504.6446     461.4101     294.6136   -29.055009    37655.765 
  988900    304.68549   -1497.0392    474.19345    343.10143    33.173311    37655.765 
  989000    300.40589   -1494.7868    501.47749    353.45183   -210.10601    37655.765 
  989100    298.45363     -1572.89    469.52905    234.64797   -380.52485    37655.765 
  989200    297.11494   -1532.1245    453.49954     253.3824   -181.79015    37655.765 
  989300    307.44985   -1535.8219    462.23696    304.75532    -261.6817    37655.765 
  989400    312.03916   -1520.5088    488.23483    366.64078    426.08452    37655.765 
  989500    295.66289   -1513.3481    490.83782    302.98735     1033.627    37655.765 
  989600    315.99873      -1549.8    462.64795    329.51399    416.77929    37655.765 
  989700     312.5764    -1530.033    469.28386    340.57405     517.6903    37655.765 
  989800    293.20575   -1530.7499    465.18121    248.91326    235.69568    37655.765 
  989900    293.63011   -1560.7005     466.4115    222.09542    353.73864    37655.765 
  990000    294.04818   -1524.4405    494.38594    288.20409    419.97106    37655.765 
  990100    303.57631   -1549.3449    482.38909    294.01875    692.21925    37655.765 
  990200    294.84279   -1524.8576    496.66604    293.62946    298.85251    37655.765 
  990300    295.13422   -1530.0512    462.61224    255.68859    165.46814    37655.765 
  990400    296.87048   -1508.0757    470.28694     293.1227   -46.094311    37655.765 
  990500    283.71526   -1486.4346    482.44695    267.94711   -84.671108    37655.765 
  990600    308.44793   -1503.3638    478.51974    357.97071    665.41638    37655.765 
  990700    292.99406   -1519.5218     486.8547    280.86584    496.12304    37655.765 
  990800    295.20472   -1502.2124    468.29132    289.52249    134.35348    37655.765 
  990900    296.54888   -1578.4573    506.18639    257.19869    882.36525    37655.765 
  991000    300.85738   -1533.9111    462.83857    277.71276    636.15487    37655.765 
  991100     302.8596   -1515.6997    487.46979    329.53154    591.06034    37655.765 
  991200    291.90222   -1522.0062     489.2795    275.91128     182.8846    37655.765 
  991300     291.6377   -1523.2512    472.18805    256.38898   -194.39905    37655.765 
  991400    299.97613   -1517.8638    470.71473    297.68538    533.36961    37655.765 
  991500     305.2125   -1504.5937    492.82331    356.53946   -72.765187    37655.765 
  991600    296.95489   -1473.4166    487.42875    345.30204    695.36954    37655.765 
  991700    310.44341   -1519.1382    471.77757    344.40012    603.22679    37655.765 
  991800    304.71365   -1489.3536    461.80095    338.52082    532.06699    37655.765 
  991900    303.53791   -1538.4538    484.89029    307.23893   -235.42643    37655.765 
  992000      299.714   -1505.9128     478.0376    315.78409   -73.441746    37655.765 
  992100    294.59186    -1509.028     481.6044    293.27246   -1205.9475    37655.765 
  992200    308.66771   -1480.8279    485.52008    388.49224   -631.41332    37655.765 
  992300      290.606   -1483.5623     483.4611     302.7257   -1162.5579    37655.765 
  992400    291.85105     -1509.86    465.41399    263.96261   -78.072384    37655.765 
  992500    305.35608   -1523.7447    480.52053     325.7294   -188.23244    37655.765 
  992600    300.08307   -1510.7177    472.80523    307.40142    -82.41548    37655.765 
  992700    315.80011   -1550.3292    465.90887    331.35519   -1.4212558    37655.765 
  992800    296.46564   -1585.4983    458.66633    202.26451    420.83832    37655.765 
  992900    293.13069   -1540.1943    484.79146    258.74252    474.05047    37655.765 
  993000    293.89157   -1544.7001    470.64658    243.50304     470.9927    37655.765 
  993100    304.07967   -1565.6795    471.32578    268.87752    638.81519    37655.765 
  993200    292.13287   -1529.1587    478.54459    259.05792    721.45586    37655.765 
  993300    296.75293    -1577.943    463.02668     215.4681    622.65388    37655.765 
  993400    295.63595   -1536.7181    466.39639    255.05512    287.49883    37655.765 
  993500    292.65982   -1508.6766    477.47783    280.83568   -615.75385    37655.765 
  993600    284.02374   -1528.9481    463.37497    207.74457   -502.84506    37655.765 
  993700    299.36833   -1494.2207    481.10786    328.99682   -221.58214    37655.765 
  993800    305.56908   -1514.1387    494.66041    350.43015   -849.15563    37655.765 
  993900    296.47203   -1534.5407    458.37115    252.95559   -260.91199    37655.765 
  994000    305.43918   -1495.8693    478.70011    352.15688    185.24018    37655.765 
  994100    305.55123    -1521.906    487.92692    335.84939   -566.74775    37655.765 
  994200    296.65099    -1497.653    455.85734     288.1318  -0.38426863    37655.765 
  994300    297.72017   -1495.6422    478.71465    317.79323   -91.288064    37655.765 
  994400    302.56092   -1514.2475    478.80359    320.97852    44.349074    37655.765 
  994500    295.57946    -1497.767    464.73557    292.09218    288.96109    37655.765 
  994600    301.99712   -1530.1848    485.66786    309.37794    -165.6104    37655.765 
  994700    289.62628   -1485.9356    460.08291    272.58199   -465.58707    37655.765 
  994800    303.57823    -1472.077    506.14899     395.0552   -842.61723    37655.765 
  994900    295.00295   -1507.2515    459.90669    275.19425   -402.57752    37655.765 
  995000     297.2637   -1512.8977    468.76424    288.54083   -186.57948    37655.765 
  995100    298.04386   -1476.3861    501.76943    361.55518   -199.12465    37655.765 
  995200     293.8752   -1481.4247    472.17003     308.2285   -48.653218    37655.765 
  995300    294.02165    -1499.955    476.08394     294.2687   -186.12449    37655.765 
  995400    298.52722   -1507.1919    472.63232    303.77925   -396.41897    37655.765 
  995500     299.1767   -1502.2406     489.3781    328.38804   -143.23021    37655.765 
  995600    291.46137   -1523.9046    497.51201    280.26901   -471.41827    37655.765 
  995700    292.40651   -1532.9956    458.02793    235.93113   -6.5545495    37655.765 
  995800    299.43782   -1509.7996    478.72667    311.34824   -468.12851    37655.765 
  995900     296.8745   -1511.3305    490.57483    310.17378   -426.93893    37655.765 
  996000    302.48418   -1490.1081    479.18626    345.15652    223.79603    37655.765 
  996100      291.645   -1519.5325    480.90792    268.86035    546.23189    37655.765 
  996200    306.32579   -1489.9154    474.21474    357.60024    517.81306    37655.765 
  996300     303.0695   -1482.0751     471.9247    348.55206    51.574073    37655.765 
  996400    294.75238   -1497.0181    461.22147    285.61907   -297.14151    37655.765 
  996500    297.28757   -1490.5942    499.21149     341.3986    354.16848    37655.765 
  996600    297.06205   -1492.8268    487.88007    326.82358    433.46071    37655.765 
  996700    297.31273   -1517.5227    484.28303    299.65439    39.459952    37655.765 
  996800    291.89878   -1433.5629    492.33311    367.39285   -293.28306    37655.765 
  996900    294.67055   -1477.9451    479.92805    323.03178   -308.87495    37655.765 
  997000    307.50199   -1473.1376    485.17428    390.61066   -913.32275    37655.765 
  997100    308.29807   -1448.4491    460.43217    394.12594   -331.66772    37655.765 
  997200    290.98641   -1463.7357    489.19731    329.99394   -910.60896    37655.765 
  997300    299.52394   -1489.2866    468.02762    321.54827   -569.79197    37655.765 
  997400    298.86325   -1463.8178    489.95561    365.98307   -1002.5658    37655.765 
  997500    307.94512   -1488.4062    487.61096     379.7653   -897.04607    37655.765 
  997600    295.43953    -1504.717    482.71619    302.49547   -447.84436    37655.765 
  997700    306.44487   -1468.6092    482.92771    388.15326   -1004.2511    37655.765 
  997800     292.7912   -1506.2489    467.67979    274.05434   -582.61629    37655.765 
  997900    310.30226   -1501.8416    469.69537    358.98173    144.64196    37655.765 
  998000    295.62766   -1468.2019    484.26819    341.40594    120.69248    37655.765 
  998100    301.94495      -1511.7    474.65663    316.61764    369.97046    37655.765 
  998200     295.3357   -1483.8418    487.07679    327.26581    512.02774    37655.765 
  998300    309.44405   -1462.5412    469.23875    393.97802    563.44062    37655.765 
  998400    302.92892   -1518.5427    459.87524    299.40475    444.77427    37655.765 
  998500    298.21888   -1467.4468    491.18689    360.69659    289.36122    37655.765 
  998600    300.81176   -1513.5373    462.80694    297.85039    270.98501    37655.765 
  998700     302.6456   -1468.2365    487.93534    376.50095    244.07997    37655.765 
  998800     301.3529   -1533.1033    466.11519    284.01863    575.95173    37655.765 
  998900    300.46769    -1551.931    473.22428    268.33146    98.698247    37655.765 
  999000    297.69929   -1537.8568    456.30571    253.07598    210.92313    37655.765 
  999100     296.1618    -1513.911    485.72617    299.54948    133.99593    37655.765 
  999200    295.00534   -1520.3757    463.68472    265.85874  -0.50382748    37655.765 
  999300    295.16261   -1504.9325    478.61054     296.9328    192.15941    37655.765 
  999400    304.35813   -1493.8777    456.55763    327.15955    114.66803    37655.765 
  999500    305.75792   -1540.1254    482.25957    312.88924    158.95956    37655.765 
  999600    301.34416   -1526.5423    497.64552    322.07073    917.58475    37655.765 
  999700    299.65746   -1461.1619    472.89847    355.14237      593.424    37655.765 
  999800    305.51497   -1505.4763     480.7436    344.93316    531.24374    37655.765 
  999900     297.8671    -1517.933    489.35626    306.80263    469.16731    37655.765 
 1000000    305.80691   -1532.2573    472.97478    311.69214   -232.49454    37655.765 
 1000100    301.53293   -1484.0131    467.22609     335.0268   -173.00027    37655.765 
 1000200    292.48068   -1475.7986    488.24989    323.68262   -323.37746    37655.765 
 1000300    304.34877   -1470.6237    484.37735    378.19127    214.07038    37655.765 
 1000400    303.91802   -1462.3232    497.85852    398.04179    409.49447    37655.765 
 1000500    297.40757   -1530.2403    464.48149    267.56046    -11.06508    37655.765 
 1000600    297.96364   -1502.6293    498.69721    331.88014   -14.608328    37655.765 
 1000700    289.15627   -1514.5719    495.83546    277.59106    153.43838    37655.765 
 1000800    303.25414   -1521.9926    488.25956     325.7972    615.80096    37655.765 
 1000900    303.19285   -1500.8133    478.57033    337.01254    303.87509    37655.765 
 1001000    298.73607    -1479.511    481.61213    341.37622   -167.55942    37655.765 
 1001100    291.16988   -1510.2032    457.47224    252.62392    312.85627    37655.765 
 1001200    299.01449   -1518.6253    459.49662    281.39465   -450.26913    37655.765 
 1001300    304.34576   -1548.2855    457.96047    274.09912   -509.56181    37655.765 
 1001400    303.55757   -1546.5841    466.35841    280.66486    190.93421    37655.765 
 1001500    309.30779    -1558.294    474.48608    302.86167    315.48254    37655.765 
 1001600     297.9713   -1496.4641    510.84593    350.22838    596.01409    37655.765 
 1001700    309.48081   -1541.5681    468.25923    314.13634    298.58138    37655.765 
 1001800     295.2742   -1499.7871    482.83793    306.80592    549.25134    37655.765 
 1001900     299.1257   -1492.3192    520.63366    369.33632    673.42596    37655.765 
 1002000    305.03182   -1463.1998    488.32157    392.62161    510.19698    37655.765 
 1002100    294.29423   -1507.2973    497.28323    309.34768    297.39639    37655.765 
 1002200    305.35891   -1501.4164    461.73096    329.28081    357.34934    37655.765 
 1002300     301.4088   -1490.4196    502.10737    362.94508    148.55557    37655.765 
 1002400    296.31651   -1477.9603    473.86342    324.33096   -750.44229    37655.765 
 1002500    292.28914   -1470.9795    493.13708    332.53019   -803.99894    37655.765 
 1002600    305.50141   -1524.7431    467.13451    311.99642   -443.91005    37655.765 
 1002700    303.95906   -1451.9206    477.57454    388.34446   -545.52651    37655.765 
 1002800    308.90512   -1457.7213    490.73816    417.88126   -495.78463    37655.765 
 1002900    300.71602   -1504.7273     484.6985    328.12271    65.290033    37655.765 
 1003000    308.92401   -1465.4178     499.1531    418.68439    8.5681354    37655.765 
 1003100    306.84527   -1476.3202    478.48095    377.79053    299.17659    37655.765 
 1003200    292.92616   -1446.6385    499.14271    365.73272    319.06479    37655.765 
 1003300    303.01921   -1515.9983    485.53977    328.01853   -73.668857    37655.765 
 1003400    296.55767   -1469.5663     493.6622    353.60497   -97.729872    37655.765 
 1003500    307.11883   -1535.7063    479.51849    320.66839       517.68    37655.765 
 1003600     304.7723   -1575.0366    459.43075    250.73054    161.38965    37655.765 
 1003700    299.44601   -1551.9027    483.62998    274.18512    -40.59842    37655.765 
 1003800     301.9442   -1509.4458    458.16829    302.38009    89.179927    37655.765 
 1003900    291.70425   -1489.7148    447.62158    265.65731     224.8222    37655.765 
 1004000    303.75075   -1423.4069    473.16564    411.51532  0.028795379    37655.765 
 1004100    304.22219   -1510.9744    465.15954    318.05523   -114.96608    37655.765 
 1004200    294.99949   -1492.8078    454.03058    283.74634    52.953553    37655.765 
 1004300    299.43697   -1454.5316     504.8367    392.72241    421.30665    37655.765 
 1004400    300.10788   -1502.1935    456.50538      299.737    730.67587    37655.765 
 1004500    289.85286   -1503.9195    492.89284    288.42378    491.36246    37655.765 
 1004600    302.52923   -1500.5196    472.94608    328.70688    537.35941    37655.765 
 1004700    293.73993   -1516.5311    471.55393    271.89954    207.62886    37655.765 
 1004800    302.35829   -1529.4472    470.33148    296.39835    61.755799    37655.765 
 1004900    304.09511   -1522.2652    467.20534     308.2406    121.11017    37655.765 
 1005000    301.63412    -1554.004    474.40979    272.67328   -298.34187    37655.765 
 1005100    302.05603   -1558.7322    462.05865    257.48544   -297.91355    37655.765 
 1005200    300.12516   -1559.3266    484.19868    270.37468   -218.73836    37655.765 
 1005300    302.27401   -1551.4609    471.37451    275.04979    233.92517    37655.765 
 1005331    305.62509   -1557.9919    457.06275    269.23044   -287.11668    37655.765 
Loop time of 608.193 on 32 procs for 1000000 steps with 1505 atoms

Performance: 142.060 ns/day, 0.169 hours/ns, 1644.216 timesteps/s
100.0% CPU use with 32 MPI tasks x no OpenMP threads

MPI task timing breakdown:
Section |  min time  |  avg time  |  max time  |%varavg| %total
---------------------------------------------------------------
Pair    | 238.49     | 275.02     | 322.94     | 144.9 | 45.22
Bond    | 1.3295     | 1.4858     | 1.6345     |   7.0 |  0.24
Neigh   | 39.173     | 39.253     | 39.328     |   0.8 |  6.45
Comm    | 232.53     | 280.32     | 316.52     | 142.6 | 46.09
Output  | 0.38971    | 0.40519    | 0.82339    |  11.8 |  0.07
Modify  | 8.1592     | 8.615      | 9.1699     |  10.4 |  1.42
Other   |            | 3.098      |            |       |  0.51

Nlocal:        47.0312 ave          74 max           7 min
Histogram: 1 1 5 1 2 2 8 5 4 3
Nghost:        1999.00 ave        2073 max        1941 min
Histogram: 3 5 5 2 4 4 3 3 1 2
Neighs:        5314.19 ave        8609 max         384 min
Histogram: 1 3 1 4 1 5 3 5 4 5

Total # of neighbors = 170054
Ave neighs/atom = 112.99269
Ave special neighs/atom = 2.0066445
Neighbor list builds = 49693
Dangerous builds = 0

# Output the system volume
variable v equal vol
print 'The system volume is $v'
The system volume is 37655.7653451422

# Outputs
variable A equal xhi-xlo
variable B equal yhi-ylo
variable C equal zhi-zlo
variable D equal xy
variable E equal xz
variable F equal yz
print 'Lattice vectors'
Lattice vectors
print '$A 0 0'
33.5179276864884 0 0
print '$D $B 0'
0 33.5179276864884 0
print '$E $F $C'
0 0 33.5179276864884
Total wall time: 0:10:12
