LAMMPS data file
 1515 atoms
 1014 bonds
 524 angles
 25 dihedrals
 2 impropers
 7 atom types
 8 bond types
 4 angle types
 3 dihedral types
 1 improper types
 0 15 xlo xhi
 0 15 ylo yhi
 0 15 zlo zhi
 0 0 0 xy xz yz

# Atom types
#
# 1 C_3
# 2 N_2
# 3 C_2
# 4 O_2
# 5 H_
# 6 H__HB
# 7 O_3

# Bond Coeffs
#
# 1 C_3*C_3
# 2 C_3*H_
# 3 C_3*N_2
# 4 N_2*C_2
# 5 C_2*O_2
# 6 C_3*C_2
# 7 N_2*H__HB
# 8 O_3*H__HB

# Angle Coeffs
#
# 1 C_3
# 2 N_2
# 3 C_2
# 4 O_3

# Dihedral Coeffs
#
# 1 A1
# 2 B1
# 3 C1

# Inversion Coeffs
#
# 1 1

 Masses

 1 12.01
 2 14.01
 3 12.01
 4 16
 5 1.01
 6 1.01
 7 16

 Atoms # full

1 1 1 0 0.0805714508674624 5.69070649025795 15.6567411168604
2 1 1 0 0.829126985483705 6.96851407448564 15.2080166587733
3 1 2 0 -0.0311055565153318 8.14338147716732 15.1854875708672
4 1 3 0 -0.423264288428555 8.77637775367806 14.023735883583
5 1 4 0 -1.05707767130798 9.86130080372944 14.0810139871667
6 1 1 0 -0.17137858104362 8.29408306575121 12.6340120820984
7 1 5 0 0.74730820384255 4.82844425210068 15.5949903688467
8 1 5 0 -0.262579341960706 5.78830315729481 16.6882299020465
9 1 5 0 -0.782572910351736 5.51131199345703 15.0137466641526
10 1 5 0 1.27828872199309 6.757073900861 14.2396023995673
11 1 5 0 1.67913807005994 7.13025025789447 15.8758250392792
12 1 5 0 0.907380555374331 8.21418430843901 12.482261615296
13 1 5 0 -0.519307271324251 9.03139820131879 11.9031897730913
14 1 5 0 -0.875536089796117 7.01730048823788 12.3271436043659
15 1 6 0 -0.475042465052351 8.6140840386709 16.391609687335
16 2 6 0 9.13156696289778 9.34840923099779 0.0187182356603444
17 2 7 0 10.0915669628978 9.34840923099779 0.0187182356603444
18 2 6 0 10.3315669628978 8.41840923099779 0.0187182356603444
19 3 6 0 5.1705444201082 13.838606913751 3.97202405962162
20 3 7 0 6.1305444201082 13.838606913751 3.97202405962162
21 3 6 0 6.3705444201082 12.908606913751 3.97202405962162
22 4 6 0 6.81284510225058 2.8623269479163 11.9301075849216
23 4 7 0 7.77284510225058 2.8623269479163 11.9301075849216
24 4 6 0 8.01284510225058 1.9323269479163 11.9301075849216
25 5 6 0 12.4139832383674 4.6042911060527 9.47673157788813
26 5 7 0 13.3739832383674 4.6042911060527 9.47673157788813
27 5 6 0 13.6139832383674 3.6742911060527 9.47673157788813
28 6 6 0 1.29092548551969 9.77030201739632 5.36962838494219
29 6 7 0 2.25092548551969 9.77030201739632 5.36962838494219
30 6 6 0 2.49092548551969 8.84030201739632 5.36962838494219
31 7 6 0 4.16781773135997 8.46965064219199 3.94033577525988
32 7 7 0 5.12781773135997 8.46965064219199 3.94033577525988
33 7 6 0 5.36781773135997 7.53965064219199 3.94033577525988
34 8 6 0 0.135792369693518 3.12879974412732 4.10642489092425
35 8 7 0 1.09579236969352 3.12879974412732 4.10642489092425
36 8 6 0 1.33579236969352 2.19879974412732 4.10642489092425
37 9 6 0 9.47786248798482 3.31975190708414 2.06354322494008
38 9 7 0 10.4378624879848 3.31975190708414 2.06354322494008
39 9 6 0 10.6778624879848 2.38975190708414 2.06354322494008
40 10 6 0 10.7381641287077 14.8453201928083 11.3991280237678
41 10 7 0 11.6981641287077 14.8453201928083 11.3991280237678
42 10 6 0 11.9381641287077 13.9153201928083 11.3991280237678
43 11 6 0 13.1080007941648 13.650322424192 4.45683705154806
44 11 7 0 14.0680007941648 13.650322424192 4.45683705154806
45 11 6 0 14.3080007941648 12.720322424192 4.45683705154806
46 12 6 0 9.5694725301303 11.1717946831509 13.9100036700256
47 12 7 0 10.5294725301303 11.1717946831509 13.9100036700256
48 12 6 0 10.7694725301303 10.2417946831509 13.9100036700256
49 13 6 0 3.00326585347764 5.5472346771881 1.71728064771742
50 13 7 0 3.96326585347764 5.5472346771881 1.71728064771742
51 13 6 0 4.20326585347764 4.6172346771881 1.71728064771742
52 14 6 0 10.357788064722 7.08034843480214 1.76462484989315
53 14 7 0 11.317788064722 7.08034843480214 1.76462484989315
54 14 6 0 11.557788064722 6.15034843480214 1.76462484989315
55 15 6 0 12.4493113327492 10.6012639104761 14.8921702208463
56 15 7 0 13.4093113327492 10.6012639104761 14.8921702208463
57 15 6 0 13.6493113327492 9.67126391047612 14.8921702208463
58 16 6 0 14.2261716727819 7.11296561913565 1.79545165970922
59 16 7 0 15.1861716727819 7.11296561913565 1.79545165970922
60 16 6 0 15.4261716727819 6.18296561913565 1.79545165970922
61 17 6 0 5.70244827817194 10.9867684349325 13.1712136405986
62 17 7 0 6.66244827817194 10.9867684349325 13.1712136405986
63 17 6 0 6.90244827817194 10.0567684349325 13.1712136405986
64 18 6 0 10.613532880526 8.8442332883738 14.7059866937343
65 18 7 0 11.573532880526 8.8442332883738 14.7059866937343
66 18 6 0 11.813532880526 7.9142332883738 14.7059866937343
67 19 6 0 -0.0068992674630135 1.21289303218015 11.5173073718324
68 19 7 0 0.953100732536986 1.21289303218015 11.5173073718324
69 19 6 0 1.19310073253699 0.282893032180145 11.5173073718324
70 20 6 0 7.39693359632045 11.4052554794494 6.05912925791927
71 20 7 0 8.35693359632045 11.4052554794494 6.05912925791927
72 20 6 0 8.59693359632045 10.4752554794494 6.05912925791927
73 21 6 0 10.2735953747481 11.3897589994036 12.0207422215026
74 21 7 0 11.2335953747481 11.3897589994036 12.0207422215026
75 21 6 0 11.4735953747481 10.4597589994036 12.0207422215026
76 22 6 0 12.4519743087888 0.763460874268785 3.70952655910514
77 22 7 0 13.4119743087888 0.763460874268785 3.70952655910514
78 22 6 0 13.6519743087888 -0.166539125731215 3.70952655910514
79 23 6 0 1.38322383558378 11.4504137196951 12.6555773243308
80 23 7 0 2.34322383558378 11.4504137196951 12.6555773243308
81 23 6 0 2.58322383558378 10.5204137196951 12.6555773243308
82 24 6 0 0.0204620025772602 4.57160433795303 1.02098153089173
83 24 7 0 0.98046200257726 4.57160433795303 1.02098153089173
84 24 6 0 1.22046200257726 3.64160433795303 1.02098153089173
85 25 6 0 11.48997602446 11.710107924128 13.0202418356203
86 25 7 0 12.44997602446 11.710107924128 13.0202418356203
87 25 6 0 12.68997602446 10.780107924128 13.0202418356203
88 26 6 0 9.87139750432223 12.4518096660636 8.03005132125691
89 26 7 0 10.8313975043222 12.4518096660636 8.03005132125691
90 26 6 0 11.0713975043222 11.5218096660636 8.03005132125691
91 27 6 0 5.01809479828924 4.86042046611197 0.219724617199972
92 27 7 0 5.97809479828924 4.86042046611197 0.219724617199972
93 27 6 0 6.21809479828924 3.93042046611197 0.219724617199972
94 28 6 0 6.03632685539313 3.86572828906588 1.67530316510238
95 28 7 0 6.99632685539313 3.86572828906588 1.67530316510238
96 28 6 0 7.23632685539313 2.93572828906588 1.67530316510238
97 29 6 0 1.11539557387121 8.87236712890677 2.37510050763376
98 29 7 0 2.07539557387121 8.87236712890677 2.37510050763376
99 29 6 0 2.31539557387121 7.94236712890677 2.37510050763376
100 30 6 0 7.3306725946907 4.15503859328106 9.11185816163197
101 30 7 0 8.2906725946907 4.15503859328106 9.11185816163197
102 30 6 0 8.5306725946907 3.22503859328106 9.11185816163197
103 31 6 0 13.9221164728235 1.8378319362551 13.0892976082396
104 31 7 0 14.8821164728235 1.8378319362551 13.0892976082396
105 31 6 0 15.1221164728235 0.907831936255097 13.0892976082396
106 32 6 0 4.94050481982529 11.5074053073209 11.9725625601131
107 32 7 0 5.90050481982529 11.5074053073209 11.9725625601131
108 32 6 0 6.14050481982529 10.5774053073209 11.9725625601131
109 33 6 0 3.99442365087569 6.48205336573534 3.90796088031493
110 33 7 0 4.95442365087569 6.48205336573534 3.90796088031493
111 33 6 0 5.19442365087569 5.55205336573534 3.90796088031493
112 34 6 0 9.25104939306155 14.9577935602888 10.5636673048139
113 34 7 0 10.2110493930615 14.9577935602888 10.5636673048139
114 34 6 0 10.4510493930615 14.0277935602888 10.5636673048139
115 35 6 0 7.25969220089726 5.07918057072908 1.23077519237995
116 35 7 0 8.21969220089726 5.07918057072908 1.23077519237995
117 35 6 0 8.45969220089726 4.14918057072908 1.23077519237995
118 36 6 0 12.2779435249697 12.4389779397193 10.7737635809463
119 36 7 0 13.2379435249697 12.4389779397193 10.7737635809463
120 36 6 0 13.4779435249697 11.5089779397193 10.7737635809463
121 37 6 0 6.71428338551894 11.5551449467335 6.91382394055836
122 37 7 0 7.67428338551894 11.5551449467335 6.91382394055836
123 37 6 0 7.91428338551894 10.6251449467335 6.91382394055836
124 38 6 0 0.849711130578071 15.2286487752013 13.9413544326089
125 38 7 0 1.80971113057807 15.2286487752013 13.9413544326089
126 38 6 0 2.04971113057807 14.2986487752013 13.9413544326089
127 39 6 0 1.67343763212673 9.24064120551571 5.47466638614424
128 39 7 0 2.63343763212673 9.24064120551571 5.47466638614424
129 39 6 0 2.87343763212673 8.31064120551571 5.47466638614424
130 40 6 0 6.22451677263714 13.4028953550756 13.3097139629535
131 40 7 0 7.18451677263714 13.4028953550756 13.3097139629535
132 40 6 0 7.42451677263714 12.4728953550756 13.3097139629535
133 41 6 0 3.39383853759617 8.85710940038785 1.13048008061014
134 41 7 0 4.35383853759617 8.85710940038785 1.13048008061014
135 41 6 0 4.59383853759617 7.92710940038785 1.13048008061014
136 42 6 0 12.7501483428944 12.9655412611924 5.8347985020373
137 42 7 0 13.7101483428944 12.9655412611924 5.8347985020373
138 42 6 0 13.9501483428944 12.0355412611924 5.8347985020373
139 43 6 0 12.0847435346525 7.33653418760747 1.61753088701516
140 43 7 0 13.0447435346525 7.33653418760747 1.61753088701516
141 43 6 0 13.2847435346525 6.40653418760747 1.61753088701516
142 44 6 0 8.37814282902516 6.09066474176012 5.4370907926932
143 44 7 0 9.33814282902516 6.09066474176012 5.4370907926932
144 44 6 0 9.57814282902516 5.16066474176012 5.4370907926932
145 45 6 0 0.517794554326683 15.185530306017 0.526326253311709
146 45 7 0 1.47779455432668 15.185530306017 0.526326253311709
147 45 6 0 1.71779455432668 14.255530306017 0.526326253311709
148 46 6 0 5.1963744316902 3.09288416564465 7.52753566252068
149 46 7 0 6.1563744316902 3.09288416564465 7.52753566252068
150 46 6 0 6.3963744316902 2.16288416564465 7.52753566252068
151 47 6 0 14.1599316678196 6.08801931533031 12.8685523860622
152 47 7 0 15.1199316678196 6.08801931533031 12.8685523860622
153 47 6 0 15.3599316678196 5.15801931533031 12.8685523860622
154 48 6 0 11.9244307761267 4.6034605886694 12.1165962342639
155 48 7 0 12.8844307761267 4.6034605886694 12.1165962342639
156 48 6 0 13.1244307761267 3.6734605886694 12.1165962342639
157 49 6 0 8.59426720577292 4.55190951627679 2.19362133764662
158 49 7 0 9.55426720577292 4.55190951627679 2.19362133764662
159 49 6 0 9.79426720577292 3.62190951627679 2.19362133764662
160 50 6 0 8.03630790484138 7.29919266229495 11.0425126785412
161 50 7 0 8.99630790484138 7.29919266229495 11.0425126785412
162 50 6 0 9.23630790484138 6.36919266229495 11.0425126785412
163 51 6 0 10.4490837366041 6.77966597647406 13.1711469835136
164 51 7 0 11.4090837366041 6.77966597647406 13.1711469835136
165 51 6 0 11.6490837366041 5.84966597647406 13.1711469835136
166 52 6 0 2.0460054678563 8.79392310435884 0.576704861596227
167 52 7 0 3.0060054678563 8.79392310435884 0.576704861596227
168 52 6 0 3.2460054678563 7.86392310435884 0.576704861596227
169 53 6 0 9.43491619007662 10.2319066335354 7.91246003005654
170 53 7 0 10.3949161900766 10.2319066335354 7.91246003005654
171 53 6 0 10.6349161900766 9.3019066335354 7.91246003005654
172 54 6 0 11.5236952928547 5.0593424534332 13.8090957328677
173 54 7 0 12.4836952928547 5.0593424534332 13.8090957328677
174 54 6 0 12.7236952928547 4.1293424534332 13.8090957328677
175 55 6 0 13.0911203466542 5.31894253258593 3.81493927678093
176 55 7 0 14.0511203466542 5.31894253258593 3.81493927678093
177 55 6 0 14.2911203466542 4.38894253258593 3.81493927678093
178 56 6 0 9.55542049647309 9.74044159910642 9.97006821096875
179 56 7 0 10.5154204964731 9.74044159910642 9.97006821096875
180 56 6 0 10.7554204964731 8.81044159910642 9.97006821096875
181 57 6 0 6.01524289391935 5.49008301965892 11.9472114520613
182 57 7 0 6.97524289391935 5.49008301965892 11.9472114520613
183 57 6 0 7.21524289391935 4.56008301965892 11.9472114520613
184 58 6 0 8.44721373796463 1.04854308808222 3.11649128096178
185 58 7 0 9.40721373796463 1.04854308808222 3.11649128096178
186 58 6 0 9.64721373796463 0.118543088082224 3.11649128096178
187 59 6 0 0.317195292301476 4.51128386700526 6.44405331113376
188 59 7 0 1.27719529230148 4.51128386700526 6.44405331113376
189 59 6 0 1.51719529230148 3.58128386700526 6.44405331113376
190 60 6 0 2.84741537922062 12.5879891651589 12.1056180994492
191 60 7 0 3.80741537922062 12.5879891651589 12.1056180994492
192 60 6 0 4.04741537922062 11.6579891651589 12.1056180994492
193 61 6 0 12.1328625809122 7.7404134119302 13.6386375466827
194 61 7 0 13.0928625809122 7.7404134119302 13.6386375466827
195 61 6 0 13.3328625809122 6.8104134119302 13.6386375466827
196 62 6 0 4.97274388952181 14.3892486420833 12.701178813586
197 62 7 0 5.93274388952181 14.3892486420833 12.701178813586
198 62 6 0 6.17274388952181 13.4592486420833 12.701178813586
199 63 6 0 12.2356700529065 8.68150477105752 11.3222528505139
200 63 7 0 13.1956700529065 8.68150477105752 11.3222528505139
201 63 6 0 13.4356700529065 7.75150477105752 11.3222528505139
202 64 6 0 11.274529904332 12.9485044842027 11.0125057341065
203 64 7 0 12.234529904332 12.9485044842027 11.0125057341065
204 64 6 0 12.474529904332 12.0185044842027 11.0125057341065
205 65 6 0 4.41735251384787 15.2623592286278 5.09315071161836
206 65 7 0 5.37735251384787 15.2623592286278 5.09315071161836
207 65 6 0 5.61735251384787 14.3323592286278 5.09315071161836
208 66 6 0 5.15745529250242 7.45618053636514 12.0841311011463
209 66 7 0 6.11745529250242 7.45618053636514 12.0841311011463
210 66 6 0 6.35745529250242 6.52618053636514 12.0841311011463
211 67 6 0 5.14899829795584 9.04157493770123 14.3798249226529
212 67 7 0 6.10899829795584 9.04157493770123 14.3798249226529
213 67 6 0 6.34899829795584 8.11157493770123 14.3798249226529
214 68 6 0 5.53043597188778 10.9311273430381 14.3051448022015
215 68 7 0 6.49043597188778 10.9311273430381 14.3051448022015
216 68 6 0 6.73043597188778 10.0011273430381 14.3051448022015
217 69 6 0 6.22751631701365 7.44299556518905 5.50476813688874
218 69 7 0 7.18751631701365 7.44299556518905 5.50476813688874
219 69 6 0 7.42751631701365 6.51299556518905 5.50476813688874
220 70 6 0 9.55210824424401 0.615662038736045 3.5663941281382
221 70 7 0 10.512108244244 0.615662038736045 3.5663941281382
222 70 6 0 10.752108244244 -0.314337961263955 3.5663941281382
223 71 6 0 -0.708716372754425 8.95103022147901 6.86363457120024
224 71 7 0 0.251283627245575 8.95103022147901 6.86363457120024
225 71 6 0 0.491283627245575 8.02103022147901 6.86363457120024
226 72 6 0 5.0559465300478 7.69312237197533 10.8890351629816
227 72 7 0 6.0159465300478 7.69312237197533 10.8890351629816
228 72 6 0 6.2559465300478 6.76312237197533 10.8890351629816
229 73 6 0 7.5050462891534 0.395906991735101 14.7122628218494
230 73 7 0 8.4650462891534 0.395906991735101 14.7122628218494
231 73 6 0 8.7050462891534 -0.534093008264899 14.7122628218494
232 74 6 0 0.116766794091091 5.49883080338128 12.9842202505097
233 74 7 0 1.07676679409109 5.49883080338128 12.9842202505097
234 74 6 0 1.31676679409109 4.56883080338128 12.9842202505097
235 75 6 0 8.81504226752557 11.3587318062223 11.2389745144174
236 75 7 0 9.77504226752557 11.3587318062223 11.2389745144174
237 75 6 0 10.0150422675256 10.4287318062224 11.2389745144174
238 76 6 0 11.0169807686191 8.01767052890733 3.44238908845
239 76 7 0 11.9769807686191 8.01767052890733 3.44238908845
240 76 6 0 12.2169807686191 7.08767052890733 3.44238908845
241 77 6 0 13.9638634950109 13.8542627547309 3.94508284167387
242 77 7 0 14.9238634950109 13.8542627547309 3.94508284167387
243 77 6 0 15.1638634950109 12.9242627547309 3.94508284167387
244 78 6 0 4.83928985006176 13.4452588837035 5.66565027809702
245 78 7 0 5.79928985006176 13.4452588837035 5.66565027809702
246 78 6 0 6.03928985006176 12.5152588837035 5.66565027809702
247 79 6 0 9.70289491393603 4.85347844119184 7.72463935660198
248 79 7 0 10.662894913936 4.85347844119184 7.72463935660198
249 79 6 0 10.902894913936 3.92347844119184 7.72463935660198
250 80 6 0 2.90284326693043 2.57924866205081 13.8905627815984
251 80 7 0 3.86284326693043 2.57924866205081 13.8905627815984
252 80 6 0 4.10284326693043 1.64924866205081 13.8905627815984
253 81 6 0 13.5298463625088 13.1011425905768 3.58187147649005
254 81 7 0 14.4898463625088 13.1011425905768 3.58187147649005
255 81 6 0 14.7298463625088 12.1711425905768 3.58187147649005
256 82 6 0 9.81469357662834 3.05356041103601 8.40779663063586
257 82 7 0 10.7746935766283 3.05356041103601 8.40779663063586
258 82 6 0 11.0146935766283 2.12356041103601 8.40779663063586
259 83 6 0 13.8254168971628 8.67066182586364 13.098765516188
260 83 7 0 14.7854168971628 8.67066182586364 13.098765516188
261 83 6 0 15.0254168971628 7.74066182586364 13.098765516188
262 84 6 0 13.0349772730563 15.0210615693964 8.53263044496998
263 84 7 0 13.9949772730563 15.0210615693964 8.53263044496998
264 84 6 0 14.2349772730563 14.0910615693964 8.53263044496998
265 85 6 0 6.16923052512109 1.40393689665012 10.0815901381429
266 85 7 0 7.12923052512109 1.40393689665012 10.0815901381429
267 85 6 0 7.36923052512109 0.473936896650121 10.0815901381429
268 86 6 0 8.78093799037859 5.98960446351208 6.71549753984436
269 86 7 0 9.74093799037859 5.98960446351208 6.71549753984436
270 86 6 0 9.98093799037859 5.05960446351208 6.71549753984436
271 87 6 0 9.95241456708871 7.47934518306516 10.916995232692
272 87 7 0 10.9124145670887 7.47934518306516 10.916995232692
273 87 6 0 11.1524145670887 6.54934518306516 10.916995232692
274 88 6 0 13.6934027743712 6.93198536447249 9.17963263462298
275 88 7 0 14.6534027743712 6.93198536447249 9.17963263462298
276 88 6 0 14.8934027743712 6.00198536447249 9.17963263462298
277 89 6 0 14.059445535969 6.58922748099081 2.81060610897839
278 89 7 0 15.019445535969 6.58922748099081 2.81060610897839
279 89 6 0 15.259445535969 5.65922748099081 2.81060610897839
280 90 6 0 1.19435346496291 4.29200166062452 2.42624512058683
281 90 7 0 2.15435346496291 4.29200166062452 2.42624512058683
282 90 6 0 2.39435346496292 3.36200166062452 2.42624512058683
283 91 6 0 2.54045988011174 8.53896336205304 2.46563182678074
284 91 7 0 3.50045988011174 8.53896336205304 2.46563182678074
285 91 6 0 3.74045988011174 7.60896336205304 2.46563182678074
286 92 6 0 3.38267017199658 4.51268515008502 12.6784464041702
287 92 7 0 4.34267017199658 4.51268515008502 12.6784464041702
288 92 6 0 4.58267017199658 3.58268515008502 12.6784464041702
289 93 6 0 9.691468235543 13.4520535687357 5.58437861502171
290 93 7 0 10.651468235543 13.4520535687357 5.58437861502171
291 93 6 0 10.891468235543 12.5220535687357 5.58437861502171
292 94 6 0 7.97993182481267 10.32988811302 2.82634971546941
293 94 7 0 8.93993182481267 10.32988811302 2.82634971546941
294 94 6 0 9.17993182481267 9.39988811301999 2.82634971546941
295 95 6 0 1.8371714155376 8.92615329864435 2.72113599465229
296 95 7 0 2.7971714155376 8.92615329864435 2.72113599465229
297 95 6 0 3.0371714155376 7.99615329864435 2.72113599465229
298 96 6 0 2.92018203341402 1.67823701090179 8.72414725483395
299 96 7 0 3.88018203341402 1.67823701090179 8.72414725483395
300 96 6 0 4.12018203341402 0.748237010901794 8.72414725483395
301 97 6 0 11.369937615674 14.5112797959615 11.8593616853468
302 97 7 0 12.329937615674 14.5112797959615 11.8593616853468
303 97 6 0 12.569937615674 13.5812797959615 11.8593616853468
304 98 6 0 0.489272694541141 5.67258810665458 4.69723470392637
305 98 7 0 1.44927269454114 5.67258810665458 4.69723470392637
306 98 6 0 1.68927269454114 4.74258810665458 4.69723470392637
307 99 6 0 8.70255202797241 12.5668479273468 3.33696464309469
308 99 7 0 9.66255202797242 12.5668479273468 3.33696464309469
309 99 6 0 9.90255202797242 11.6368479273468 3.33696464309469
310 100 6 0 12.061680340413 8.32617666264065 2.15221331804059
311 100 7 0 13.021680340413 8.32617666264065 2.15221331804059
312 100 6 0 13.261680340413 7.39617666264065 2.15221331804059
313 101 6 0 4.36358900318854 14.026817041859 10.3842179838102
314 101 7 0 5.32358900318854 14.026817041859 10.3842179838102
315 101 6 0 5.56358900318854 13.096817041859 10.3842179838102
316 102 6 0 8.34689082970843 9.52570105361752 11.8266737263184
317 102 7 0 9.30689082970843 9.52570105361752 11.8266737263184
318 102 6 0 9.54689082970843 8.59570105361752 11.8266737263184
319 103 6 0 6.83018223426305 3.0571201249864 6.26590164494701
320 103 7 0 7.79018223426305 3.0571201249864 6.26590164494701
321 103 6 0 8.03018223426305 2.1271201249864 6.26590164494701
322 104 6 0 6.93853989869356 4.96311636799015 13.7418881768826
323 104 7 0 7.89853989869356 4.96311636799015 13.7418881768826
324 104 6 0 8.13853989869356 4.03311636799015 13.7418881768826
325 105 6 0 0.98859549776651 5.18731888075359 13.7041586847045
326 105 7 0 1.94859549776651 5.18731888075359 13.7041586847045
327 105 6 0 2.18859549776651 4.25731888075359 13.7041586847045
328 106 6 0 11.5959085772932 11.1326045256015 14.9361827073153
329 106 7 0 12.5559085772932 11.1326045256015 14.9361827073153
330 106 6 0 12.7959085772932 10.2026045256015 14.9361827073153
331 107 6 0 9.30446695114486 6.48707846336998 14.2654446442612
332 107 7 0 10.2644669511449 6.48707846336998 14.2654446442612
333 107 6 0 10.5044669511449 5.55707846336998 14.2654446442612
334 108 6 0 11.7866874339245 2.66155367059633 3.58011252363212
335 108 7 0 12.7466874339245 2.66155367059633 3.58011252363212
336 108 6 0 12.9866874339245 1.73155367059633 3.58011252363212
337 109 6 0 14.1650395786576 1.57201874692924 9.72684037755243
338 109 7 0 15.1250395786576 1.57201874692924 9.72684037755243
339 109 6 0 15.3650395786576 0.642018746929243 9.72684037755243
340 110 6 0 3.15337021180429 15.1901200895105 3.73878904036246
341 110 7 0 4.11337021180429 15.1901200895105 3.73878904036246
342 110 6 0 4.35337021180429 14.2601200895105 3.73878904036246
343 111 6 0 9.75935788636096 4.97595962294377 12.2490165301133
344 111 7 0 10.719357886361 4.97595962294377 12.2490165301133
345 111 6 0 10.959357886361 4.04595962294377 12.2490165301133
346 112 6 0 3.93211374568753 11.027609495623 12.9558362450916
347 112 7 0 4.89211374568753 11.027609495623 12.9558362450916
348 112 6 0 5.13211374568753 10.097609495623 12.9558362450916
349 113 6 0 5.46829636601731 9.14499452262186 12.7025821607094
350 113 7 0 6.42829636601731 9.14499452262186 12.7025821607094
351 113 6 0 6.66829636601731 8.21499452262186 12.7025821607094
352 114 6 0 3.30595275314525 11.1707283618767 13.7943959387485
353 114 7 0 4.26595275314525 11.1707283618767 13.7943959387485
354 114 6 0 4.50595275314525 10.2407283618767 13.7943959387485
355 115 6 0 1.92759063022211 11.5517213304434 11.989497046452
356 115 7 0 2.88759063022211 11.5517213304434 11.989497046452
357 115 6 0 3.12759063022211 10.6217213304434 11.989497046452
358 116 6 0 -0.32606656037271 9.07167594455183 0.416149345692247
359 116 7 0 0.63393343962729 9.07167594455183 0.416149345692247
360 116 6 0 0.87393343962729 8.14167594455183 0.416149345692247
361 117 6 0 10.6713711276837 14.1289777696971 12.1334133285563
362 117 7 0 11.6313711276837 14.1289777696971 12.1334133285563
363 117 6 0 11.8713711276837 13.1989777696971 12.1334133285563
364 118 6 0 14.2391234175023 6.31237268139608 10.1242144347634
365 118 7 0 15.1991234175023 6.31237268139608 10.1242144347634
366 118 6 0 15.4391234175023 5.38237268139608 10.1242144347634
367 119 6 0 11.2716395831387 5.81197298172861 6.60597898531705
368 119 7 0 12.2316395831387 5.81197298172861 6.60597898531705
369 119 6 0 12.4716395831387 4.88197298172861 6.60597898531705
370 120 6 0 2.19873670066707 4.11640365998261 8.79866550676525
371 120 7 0 3.15873670066707 4.11640365998261 8.79866550676525
372 120 6 0 3.39873670066707 3.18640365998261 8.79866550676525
373 121 6 0 11.617118833093 14.8481655346137 4.62513685924932
374 121 7 0 12.577118833093 14.8481655346137 4.62513685924932
375 121 6 0 12.817118833093 13.9181655346137 4.62513685924932
376 122 6 0 1.76920892947353 5.77331796678714 5.37812704453245
377 122 7 0 2.72920892947353 5.77331796678714 5.37812704453245
378 122 6 0 2.96920892947353 4.84331796678714 5.37812704453245
379 123 6 0 6.6956358721666 9.34171247104183 1.29245501942933
380 123 7 0 7.6556358721666 9.34171247104183 1.29245501942933
381 123 6 0 7.8956358721666 8.41171247104183 1.29245501942933
382 124 6 0 10.2646703521907 14.9545954800583 13.7415120180231
383 124 7 0 11.2246703521907 14.9545954800583 13.7415120180231
384 124 6 0 11.4646703521907 14.0245954800583 13.7415120180231
385 125 6 0 9.50000154945999 9.04701265198179 8.70378338964656
386 125 7 0 10.46000154946 9.04701265198179 8.70378338964656
387 125 6 0 10.70000154946 8.11701265198179 8.70378338964656
388 126 6 0 7.08343900783919 14.2763188729901 12.752367365174
389 126 7 0 8.04343900783919 14.2763188729901 12.752367365174
390 126 6 0 8.28343900783919 13.3463188729901 12.752367365174
391 127 6 0 10.0448200029507 8.65786605089903 12.8787481749896
392 127 7 0 11.0048200029507 8.65786605089903 12.8787481749896
393 127 6 0 11.2448200029507 7.72786605089903 12.8787481749896
394 128 6 0 7.6134366499912 12.1207347935438 6.56124806497246
395 128 7 0 8.5734366499912 12.1207347935438 6.56124806497246
396 128 6 0 8.8134366499912 11.1907347935438 6.56124806497246
397 129 6 0 3.03641014426947 0.887946717385203 3.11342100379989
398 129 7 0 3.99641014426947 0.887946717385203 3.11342100379989
399 129 6 0 4.23641014426947 -0.0420532826147974 3.11342100379989
400 130 6 0 9.43721017029136 5.43998013757169 6.0011561983265
401 130 7 0 10.3972101702914 5.43998013757169 6.0011561983265
402 130 6 0 10.6372101702914 4.50998013757169 6.0011561983265
403 131 6 0 3.18076726558618 4.21507274190895 10.1804358058143
404 131 7 0 4.14076726558618 4.21507274190895 10.1804358058143
405 131 6 0 4.38076726558618 3.28507274190895 10.1804358058143
406 132 6 0 1.76294064193033 11.9257460946124 9.12574623129331
407 132 7 0 2.72294064193033 11.9257460946124 9.12574623129331
408 132 6 0 2.96294064193033 10.9957460946124 9.12574623129331
409 133 6 0 3.89193611961789 11.7294336452056 10.1393541460857
410 133 7 0 4.85193611961789 11.7294336452056 10.1393541460857
411 133 6 0 5.09193611961789 10.7994336452056 10.1393541460857
412 134 6 0 4.82362313705497 9.56286563695408 12.2788797179237
413 134 7 0 5.78362313705497 9.56286563695408 12.2788797179237
414 134 6 0 6.02362313705497 8.63286563695408 12.2788797179237
415 135 6 0 8.45572383885272 3.8690850492008 9.53479019226506
416 135 7 0 9.41572383885272 3.8690850492008 9.53479019226506
417 135 6 0 9.65572383885272 2.9390850492008 9.53479019226506
418 136 6 0 1.83703268107027 3.12364793307148 4.69600627664477
419 136 7 0 2.79703268107027 3.12364793307148 4.69600627664477
420 136 6 0 3.03703268107027 2.19364793307148 4.69600627664477
421 137 6 0 8.50128130914643 14.1992794249114 5.16597572830506
422 137 7 0 9.46128130914643 14.1992794249114 5.16597572830506
423 137 6 0 9.70128130914643 13.2692794249114 5.16597572830506
424 138 6 0 8.91608010672033 7.87557693006471 1.49089928716421
425 138 7 0 9.87608010672033 7.87557693006471 1.49089928716421
426 138 6 0 10.1160801067203 6.94557693006471 1.49089928716421
427 139 6 0 2.35747048675083 13.3644366897084 14.7956563951448
428 139 7 0 3.31747048675083 13.3644366897084 14.7956563951448
429 139 6 0 3.55747048675083 12.4344366897084 14.7956563951448
430 140 6 0 5.20294692294672 6.2733092826698 8.56488616322167
431 140 7 0 6.16294692294672 6.2733092826698 8.56488616322167
432 140 6 0 6.40294692294672 5.3433092826698 8.56488616322167
433 141 6 0 -0.244568784981966 6.63846312597394 2.88183834752999
434 141 7 0 0.715431215018034 6.63846312597394 2.88183834752999
435 141 6 0 0.955431215018034 5.70846312597394 2.88183834752999
436 142 6 0 10.1116153299529 7.58963074110448 9.64919535093941
437 142 7 0 11.0716153299529 7.58963074110448 9.64919535093941
438 142 6 0 11.3116153299529 6.65963074110448 9.64919535093941
439 143 6 0 0.240544450208545 4.49513364391401 4.19148521265015
440 143 7 0 1.20054445020854 4.49513364391401 4.19148521265015
441 143 6 0 1.44054445020854 3.56513364391401 4.19148521265015
442 144 6 0 1.71619508924894 13.9849401735142 14.9289821949787
443 144 7 0 2.67619508924894 13.9849401735142 14.9289821949787
444 144 6 0 2.91619508924894 13.0549401735142 14.9289821949787
445 145 6 0 7.36874026872218 1.09208576887846 1.85748812975362
446 145 7 0 8.32874026872218 1.09208576887846 1.85748812975362
447 145 6 0 8.56874026872218 0.16208576887846 1.85748812975362
448 146 6 0 0.0652298207581044 6.34246268699877 6.12603387096897
449 146 7 0 1.0252298207581 6.34246268699877 6.12603387096897
450 146 6 0 1.2652298207581 5.41246268699877 6.12603387096897
451 147 6 0 5.53973891001195 7.27406403090805 13.2959137565922
452 147 7 0 6.49973891001195 7.27406403090805 13.2959137565922
453 147 6 0 6.73973891001195 6.34406403090805 13.2959137565922
454 148 6 0 9.28704388716258 14.4985458864272 7.3764185293112
455 148 7 0 10.2470438871626 14.4985458864272 7.3764185293112
456 148 6 0 10.4870438871626 13.5685458864272 7.3764185293112
457 149 6 0 0.355069508515298 13.083790549254 0.234909073915333
458 149 7 0 1.3150695085153 13.083790549254 0.234909073915333
459 149 6 0 1.5550695085153 12.153790549254 0.234909073915333
460 150 6 0 9.99045707794838 4.80352504336275 10.9624347870704
461 150 7 0 10.9504570779484 4.80352504336275 10.9624347870704
462 150 6 0 11.1904570779484 3.87352504336275 10.9624347870704
463 151 6 0 8.33375962145626 9.06215506996028 5.06901884218678
464 151 7 0 9.29375962145627 9.06215506996028 5.06901884218678
465 151 6 0 9.53375962145627 8.13215506996028 5.06901884218678
466 152 6 0 12.6477332347725 7.85360625403933 10.1355758914724
467 152 7 0 13.6077332347725 7.85360625403933 10.1355758914724
468 152 6 0 13.8477332347725 6.92360625403933 10.1355758914724
469 153 6 0 7.59252500647679 11.4655417976342 4.5023301243782
470 153 7 0 8.55252500647679 11.4655417976342 4.5023301243782
471 153 6 0 8.79252500647679 10.5355417976342 4.5023301243782
472 154 6 0 9.38984870488755 6.30792717839591 1.4832601568196
473 154 7 0 10.3498487048876 6.30792717839591 1.4832601568196
474 154 6 0 10.5898487048876 5.37792717839591 1.4832601568196
475 155 6 0 11.9547916569002 1.8150790051464 6.77883547148667