LAMMPS (29 Sep 2021 - Update 1)
# Test LAMMPS input file for single DeFDe

# Initialize simulation

clear

units real
atom_style full
boundary p p p
dielectric 1
special_bonds dreiding

bond_style harmonic
angle_style harmonic
dihedral_style harmonic
improper_style umbrella
pair_style hybrid/overlay hbond/dreiding/lj 4 9.0 11.0 90 lj/cut 8.50000

# Read data file
read_data frag5.dat
Reading data file ...
  triclinic box = (0.0000000 0.0000000 0.0000000) to (15.000000 15.000000 15.000000) with tilt (0.0000000 0.0000000 0.0000000)
  2 by 4 by 4 MPI processor grid
  reading atoms ...
  1515 atoms
  scanning bonds ...
  4 = max bonds/atom
  scanning angles ...
  6 = max angles/atom
  scanning dihedrals ...
  9 = max dihedrals/atom
  scanning impropers ...
  1 = max impropers/atom
  reading bonds ...
  1014 bonds
  reading angles ...
  524 angles
  reading dihedrals ...
  25 dihedrals
  reading impropers ...
  2 impropers
Finding 1-2 1-3 1-4 neighbors ...
  special bond factors lj:    0        0        1       
  special bond factors coul:  0        0        1       
     4 = max # of 1-2 neighbors
     5 = max # of 1-3 neighbors
     9 = max # of special neighbors
  special bonds CPU = 0.002 seconds
  read_data CPU = 0.017 seconds

# Dreiding potential information

bond_coeff 1 350 1.53
bond_coeff 2 350 1.09
bond_coeff 3 350 1.375
bond_coeff 4 700 1.275
bond_coeff 5 700 1.22
bond_coeff 6 350 1.43
bond_coeff 7 350 0.935
bond_coeff 8 350 0.98

angle_coeff 1 50 109.471
angle_coeff 2 50 120
angle_coeff 3 50 120
angle_coeff 4 50 104.51

dihedral_coeff 1 0.111111111111111 -1 3
dihedral_coeff 2 0.0833333333333333 -1 6
dihedral_coeff 3 5.625 -1 2

improper_coeff 1 40 0

pair_coeff 1 1 lj/cut 0.0951 3.8983
pair_coeff 1 2 lj/cut 0.0857947550844456 3.77835472527395
pair_coeff 1 3 lj/cut 0.0951 3.8983
pair_coeff 1 4 lj/cut 0.0953995283007206 3.64309650983885
pair_coeff 1 5 lj/cut 0.0380199947396104 3.52917391183829
pair_coeff 1 6 lj/cut 0.00308382878902186 3.52806914614779
pair_coeff 1 7 lj/cut 0.0953995283007206 3.64309650983885
pair_coeff 2 2 lj/cut 0.0774 3.6621
pair_coeff 2 3 lj/cut 0.0857947550844456 3.77835472527395
pair_coeff 2 4 lj/cut 0.0860649754545948 3.53100349192691
pair_coeff 2 5 lj/cut 0.0342998542270955 3.42058613398347
pair_coeff 2 6 lj/cut 0.00278208554864871 3.41951536039831
pair_coeff 2 7 lj/cut 0.0860649754545948 3.53100349192691
pair_coeff 3 3 lj/cut 0.0951 3.8983
pair_coeff 3 4 lj/cut 0.0953995283007206 3.64309650983885
pair_coeff 3 5 lj/cut 0.0380199947396104 3.52917391183829
pair_coeff 3 6 lj/cut 0.00308382878902186 3.52806914614779
pair_coeff 3 7 lj/cut 0.0953995283007206 3.64309650983885
pair_coeff 4 4 lj/cut 0.0957 3.4046
pair_coeff 4 5 lj/cut 0.0381397430510485 3.29813538230316
pair_coeff 4 6 lj/cut 0.0030935416596516 3.29710294046152
pair_coeff 4 7 lj/cut 0.0957 3.4046
pair_coeff 5 5 lj/cut 0.0152 3.195
pair_coeff 5 6 lj/cut 0.0012328828005938 3.19399984345648
pair_coeff 5 7 lj/cut 0.0381397430510485 3.29813538230316
pair_coeff 6 6 lj/cut 1e-04 3.193
pair_coeff 6 7 lj/cut 0.0030935416596516 3.29710294046152
pair_coeff 7 7 lj/cut 0.0957 3.4046
pair_coeff 2 2 hbond/dreiding/lj 6 j 9.50 2.75 4 9.0 11.0 90
pair_coeff 2 4 hbond/dreiding/lj 6 i 9.50 2.75 4 9.0 11.0 90
pair_coeff 2 7 hbond/dreiding/lj 6 i 9.50 2.75 4 9.0 11.0 90
pair_coeff 2 7 hbond/dreiding/lj 6 j 9.50 2.75 4 9.0 11.0 90
pair_coeff 4 7 hbond/dreiding/lj 6 j 9.50 2.75 4 9.0 11.0 90
pair_coeff 7 7 hbond/dreiding/lj 6 j 9.50 2.75 4 9.0 11.0 90

neighbor 2 bin
neigh_modify every 2 one 10000

# Gemoetric relaxation
fix 1 all box/relax iso 1.0 vmax 0.001
minimize 1.0e-4 1.0e-6 10000 10000
WARNING: Using 'neigh_modify every 1 delay 0 check yes' setting during minimization (../min.cpp:188)
Neighbor list info ...
  update every 1 steps, delay 0 steps, check yes
  max neighbors/atom: 10000, page size: 100000
  master list distance cutoff = 13
  ghost atom cutoff = 13
  binsize = 6.5, bins = 3 3 3
  3 neighbor lists, perpetual/occasional/extra = 3 0 0
  (1) pair hbond/dreiding/lj, perpetual, skip from (3)
      attributes: full, newton on
      pair build: skip
      stencil: none
      bin: none
  (2) pair lj/cut, perpetual, half/full from (3)
      attributes: half, newton on
      pair build: halffull/newton
      stencil: none
      bin: none
  (3) neighbor class addition, perpetual
      attributes: full, newton on
      pair build: full/bin
      stencil: full/bin/3d
      bin: standard
Per MPI rank memory allocation (min/avg/max) = 14.41 | 14.75 | 15.19 Mbytes
Step Temp E_pair E_mol TotEng Press Volume 
       0            0 4.9404771e+16    277.00386 4.9404771e+16 4.0149415e+18         3375 
    5653            0   -1022.0584    34.272407   -987.78601    81.794968    37426.586 
Loop time of 4.63527 on 32 procs for 5653 steps with 1515 atoms

100.0% CPU use with 32 MPI tasks x no OpenMP threads

Minimization stats:
  Stopping criterion = energy tolerance
  Energy initial, next-to-last, final = 
    4.94047712621012e+16  -987.198357935145  -987.289398525081
  Force two-norm initial, final = 8.5210157e+18 97.985304
  Force max component initial, final = 5.8243024e+18 59.327975
  Final line search alpha, max atom move = 1.1061654e-05 0.00065626552
  Iterations, force evaluations = 5653 5654

MPI task timing breakdown:
Section |  min time  |  avg time  |  max time  |%varavg| %total
---------------------------------------------------------------
Pair    | 1.491      | 2.6631     | 3.734      |  35.8 | 57.45
Bond    | 0.0068225  | 0.01197    | 0.020857   |   2.6 |  0.26
Neigh   | 0.093411   | 0.093651   | 0.093938   |   0.1 |  2.02
Comm    | 0.43458    | 1.5049     | 2.6819     |  47.7 | 32.47
Output  | 0          | 0          | 0          |   0.0 |  0.00
Modify  | 0          | 0          | 0          |   0.0 |  0.00
Other   |            | 0.3616     |            |       |  7.80

Nlocal:        47.3438 ave          62 max          27 min
Histogram: 1 1 3 2 8 2 1 3 7 4
Nghost:        1971.66 ave        1997 max        1945 min
Histogram: 2 2 5 1 5 6 4 2 1 4
Neighs:        5058.16 ave        7078 max        2753 min
Histogram: 1 2 7 3 3 1 3 4 5 3

Total # of neighbors = 161861
Ave neighs/atom = 106.83894
Ave special neighs/atom = 2.0303630
Neighbor list builds = 98
Dangerous builds = 0

# MD simulation
velocity all create 300.0 12345 rot yes dist gaussian
timestep 1.0
fix 2 all nvt temp 300.0 300.0 1

# Compute interaction energy
group WAT molecule <> 2 501
1500 atoms in group WAT
group MOL molecule 1
15 atoms in group MOL

compute w WAT group/group MOL pair yes
fix 3 all ave/time 10 5 100 c_w file outa

# Outputs
thermo 100 # Output thermodynamic data every nth step
#dump mf1 all xyz 10000 mol_*.xyz

# Run
run 1000000
Neighbor list info ...
  update every 2 steps, delay 10 steps, check yes
  max neighbors/atom: 10000, page size: 100000
  master list distance cutoff = 13
  ghost atom cutoff = 13
  binsize = 6.5, bins = 6 6 6
  4 neighbor lists, perpetual/occasional/extra = 3 1 0
  (1) pair hbond/dreiding/lj, perpetual, skip from (4)
      attributes: full, newton on
      pair build: skip
      stencil: none
      bin: none
  (2) pair lj/cut, perpetual, half/full from (4)
      attributes: half, newton on
      pair build: halffull/newton
      stencil: none
      bin: none
  (3) compute group/group, occasional, copy from (2)
      attributes: half, newton on
      pair build: copy
      stencil: none
      bin: none
  (4) neighbor class addition, perpetual
      attributes: full, newton on
      pair build: full/bin
      stencil: full/bin/3d
      bin: standard
Per MPI rank memory allocation (min/avg/max) = 13.25 | 13.33 | 13.81 Mbytes
Step Temp E_pair E_mol TotEng Press Volume 
    5653          300   -1022.0584    34.272407    366.09792    1735.4087    37426.586 
    5700    295.54245   -1068.2023    259.65181    525.21677    1151.2904    37426.586 
    5800     298.0486   -1088.9482     187.5561     443.6853    996.63154    37426.586 
    5900    307.09137   -1079.7131    167.43049    473.60428     1201.518    37426.586 
    6000    298.81557    -1100.068    186.83682    435.30749    1061.9449    37426.586 
    6100    297.47123   -1107.9705    209.93979    444.44097    931.61438    37426.586 
    6200    311.08132   -1077.6293    183.31426    509.57833     1186.408    37426.586 
    6300    310.37761   -1096.7885    196.95905    500.88804    721.62763    37426.586 
    6400    305.73842   -1050.0918    194.91821    524.60752    359.86368    37426.586 
    6500     306.5123   -1097.9859    189.10441    474.39207    78.106805    37426.586 
    6600    309.26156   -1056.0637    200.76286    540.37999    515.51631    37426.586 
    6700    303.52353   -1063.1442    208.86354    515.50478    535.33842    37426.586 
    6800    290.80603   -1089.5229    190.88475    413.75385    603.10519    37426.586 
    6900    305.47579   -1054.5537    203.29542    527.33757    891.58654    37426.586 
    7000     287.5629   -1059.0665    203.68478    442.37421    225.47887    37426.586 
    7100    303.12269   -1092.5186    209.40764    484.86553    616.48185    37426.586 
    7200    304.39641   -1059.2962    208.81942    523.24787      742.131    37426.586 
    7300    297.68061   -1076.4556    196.93641    463.89745    653.83605    37426.586 
    7400    308.44693   -1080.8253    221.54518    532.72437    827.76526    37426.586 
    7500    296.20622    -1101.575    215.99452    451.18232    731.22655    37426.586 
    7600    306.96032     -1057.33    213.84209    541.80757    584.80197    37426.586 
    7700    302.03494    -1081.633    210.79743    492.23197    470.82313    37426.586 
    7800    290.49581   -1108.5488    208.76526    411.20854   -175.56198    37426.586 
    7900    281.58561    -1106.271    225.56444     390.0742    96.598853    37426.586 
    8000    300.55502   -1102.7502    224.04999    477.68845    373.38266    37426.586 
    8100    304.31742   -1100.2877    230.27708    503.35762    349.00399    37426.586 
    8200     303.9462   -1075.0005      235.266    531.95844    443.42412    37426.586 
    8300    307.47549   -1088.7726    222.66934    521.51718    275.12181    37426.586 
    8400    304.46384   -1131.0481     226.5579    469.53876   -138.18397    37426.586 
    8500    291.67085   -1129.3662    218.50515     405.4339    222.13021    37426.586 
    8600    291.07287   -1119.0556     230.6071     425.1478   -81.462882    37426.586 
    8700    287.81094   -1099.4056    230.26928    429.73909    184.36266    37426.586 
    8800    289.12491   -1103.9929    224.87779    425.69007    856.53999    37426.586 
    8900    300.40507   -1155.6467    246.01084    446.07619    781.17228    37426.586 
    9000    297.61084   -1163.0908    232.39473    412.40573    1001.7152    37426.586 
    9100    305.42188   -1153.3163    236.99742    462.03372     851.3297    37426.586 
    9200    291.70673   -1096.7567    242.83905    462.53922    1504.2233    37426.586 
    9300    286.48252   -1118.4242    236.52782    410.98393    781.94778    37426.586 
    9400    305.83712   -1111.6921    240.76533    509.29983    580.79669    37426.586 
    9500    305.59988   -1090.0874    227.33082    516.39927    342.57923    37426.586 
    9600    286.62583   -1173.6127    249.27698    369.19128    -45.64252    37426.586 
    9700    304.11176   -1072.2841    242.02374    542.17974    965.92486    37426.586 
    9800    298.97827   -1140.3192    237.47448    446.42822    671.19627    37426.586 
    9900    293.10649   -1085.6583     252.3258    489.44142     668.6825    37426.586 
   10000    298.06691   -1137.3162    232.97726    440.82106    268.95605    37426.586 
   10100    300.49654   -1124.3076    243.97179    475.78894    292.80469    37426.586 
   10200    303.39927   -1165.1439      240.787    444.86771    54.753602    37426.586 
   10300    314.41432   -1129.7818    239.45164    528.60483    627.51083    37426.586 
   10400    294.64009   -1095.9187    250.01711    483.79334    411.76511    37426.586 
   10500    300.03762   -1110.6264    245.39177    488.81907    521.24764    37426.586 
   10600    305.09737   -1127.1503    230.28887    480.02661    196.55377    37426.586 
   10700    305.17922   -1121.8483    244.02309    499.43224    152.68691    37426.586 
   10800    308.61284   -1159.5614    239.63711    472.82894    88.029343    37426.586 
   10900     298.4727   -1179.1984    263.90699    431.69987    157.70615    37426.586 
   11000    287.35862   -1111.6644    221.99099    407.16071    379.93592    37426.586 
   11100    301.75059   -1134.0243    246.00323     473.7632    296.87638    37426.586 
   11200    301.99847   -1152.8951     228.5805    438.58829    541.68089    37426.586 
   11300    289.33877    -1116.707     270.7482    459.81159   -10.384939    37426.586 
   11400     300.8012   -1109.7569    244.40901    492.15177    353.63984    37426.586 
   11500    294.46942    -1136.931    249.84752    441.84128   -113.38376    37426.586 
   11600    302.10322   -1117.6704    262.06357    507.76883    10.534645    37426.586 
   11700    301.34328   -1154.7082    244.51246    449.75032    92.242021    37426.586 
   11800    296.00774   -1120.1706    251.09397    466.79038     128.7524    37426.586 
   11900    296.49641   -1097.9082    260.62002     500.7842    344.26815    37426.586 
   12000    293.59569   -1158.0694    263.10655    430.01873    373.37308    37426.586 
   12100    310.54081   -1141.3529     252.2011    512.30228    332.94607    37426.586 
   12200    308.42838    -1198.424    256.41264    449.90942    476.26059    37426.586 
   12300     308.9167   -1127.0819     269.6474    536.69004    226.07943    37426.586 
   12400    303.83878   -1136.8449    257.61274    491.97594    159.55211    37426.586 
   12500    302.34119   -1132.3855    258.52349     490.5876     231.7625    37426.586 
   12600    302.10727   -1124.7972    263.73728    502.33399    415.40221    37426.586 
   12700    298.94769   -1140.8838     261.5269    469.77798    847.84819    37426.586 
   12800    302.72732   -1134.1026    266.84875    498.93825    720.59174    37426.586 
   12900    308.23404   -1145.6629    265.67788    511.05865    477.39962    37426.586 
   13000    299.95118   -1186.1443     265.7262    433.24548    1038.1957    37426.586 
   13100    300.53191   -1164.8465    283.97377    475.41168    589.92749    37426.586 
   13200     292.9586   -1151.7491    280.52591     450.8833     885.0467    37426.586 
   13300    292.59675   -1174.8463    277.40183    423.02894    472.46932    37426.586 
   13400    297.07918   -1192.6471    262.87147    410.92675     450.3516    37426.586 
   13500    295.41744    -1164.313    279.83694    448.72702    515.91883    37426.586 
   13600    296.19102    -1183.046    282.37333    436.02156     856.1495    37426.586 
   13700    306.67194   -1149.7201    270.31479    504.58872    918.09585    37426.586 
   13800    298.10116   -1207.6869    288.06894    425.69661    731.95445    37426.586 
   13900    291.89327   -1181.0589    273.89085    410.13058     247.9676    37426.586 
   14000    297.32172   -1185.4817    294.20829     450.5236    493.68275    37426.586 
   14100    298.47936   -1153.6323      284.865    478.25402     310.9416    37426.586 
   14200    303.64501   -1156.7218    273.86712    487.47895   -223.43808    37426.586 
   14300    293.04317   -1150.9308    288.66814    460.22545    187.00065    37426.586 
   14400    288.84713   -1146.9658      269.346     425.9318     467.8903    37426.586 
   14500    304.06852   -1170.1321    295.15721    497.27005    462.93296    37426.586 
   14600    290.53617   -1195.0152    276.96157    393.12049    115.89054    37426.586 
   14700    299.93566   -1183.0014    284.16864    454.76078    4.4587674    37426.586 
   14800    303.32993    -1227.099    281.11768    422.93041    330.33257    37426.586 
   14900    303.51621    -1196.872     301.3723    474.25268    62.007765    37426.586 
   15000    307.17735   -1172.5065     307.4752     521.2436    104.26531    37426.586 
   15100    299.57018   -1166.0975    263.61741    449.46406    263.40679    37426.586 
   15200    304.74252   -1167.4076    307.86273    515.74177   -207.05205    37426.586 
   15300    302.06362   -1177.1793    285.45747    471.47511    52.207529    37426.586 
   15400    295.44081   -1185.2214    284.15551    432.24268    255.53109    37426.586 
   15500    310.06332   -1219.7464    280.17749    459.73023    291.80417    37426.586 
   15600    297.19684   -1204.0142    286.12726     423.3465   -16.132626    37426.586 
   15700    297.30767   -1197.7506    278.11385     422.0968    722.02252    37426.586 
   15800     296.9527   -1172.1099    311.76031      479.782    668.30846    37426.586 
   15900    300.46028   -1181.0116    277.59396    452.54355     411.4548    37426.586 
   16000    300.87867   -1162.6056    286.34339    481.58711    54.545635    37426.586 
   16100    310.25457   -1182.5472    288.93308    506.54815    78.026155    37426.586 
   16200    303.41202   -1210.3182    280.57136    439.53532    389.74494    37426.586 
   16300    300.79207   -1192.0199    287.06025    452.49886    123.41528    37426.586 
   16400    292.63931    -1175.474    295.36941    440.56097    427.84245    37426.586 
   16500    290.23378   -1215.5489    290.79708    385.05771    379.14434    37426.586 
   16600    294.01606   -1204.1171    291.28028    414.04191    300.60927    37426.586 
   16700    300.03292    -1213.484    287.69141    428.23992    361.43825    37426.586 
   16800    310.57445   -1177.3534    304.15125    528.40369    317.29479    37426.586 
   16900    298.67522   -1188.0457    291.87754    451.73711   -193.63123    37426.586 
   17000    306.38118   -1201.8179    280.75369    461.61763   -184.78575    37426.586 
   17100    300.00139   -1177.5521    301.00934    477.34743     204.3667    37426.586 
   17200    293.27039   -1210.7682     283.7459    396.49128    558.88809    37426.586 
   17300    308.55577   -1203.1586    310.86069    500.19778    285.18316    37426.586 
   17400     305.3336   -1148.6552    315.41269    544.71168    296.80207    37426.586 
   17500     285.4904   -1163.6093    295.05578    419.84935    41.481138    37426.586 
   17600    305.32528   -1178.3906    309.12365    508.64971   -242.97096    37426.586 
   17700    298.74853   -1191.6625      306.652    463.22563   -312.31269    37426.586 
   17800    299.60043   -1161.1401    301.99266    492.93328   -190.79141    37426.586 
   17900    295.56907   -1207.3294    293.45075    420.00869   -396.03329    37426.586 
   18000    291.16192   -1195.7801    312.17364    430.39163    112.71433    37426.586 
   18100    292.77983   -1162.8738    317.94473    476.37061    184.89252    37426.586 
   18200    296.02689   -1167.0792    291.84641    460.72071    235.15522    37426.586 
   18300    301.87621   -1170.2478    319.29068    511.39402    437.48133    37426.586 
   18400    308.56506   -1171.2993    320.79381     542.0321    540.51542    37426.586 
   18500    298.53799   -1209.3722    302.92571    440.83948    96.918488    37426.586 
   18600    302.98748   -1228.7997    313.14285    451.70938    771.83796    37426.586 
   18700    287.22299   -1172.0984    320.49225    444.61585    204.47027    37426.586 
   18800    296.67523   -1179.1539    302.04762    461.77317    333.41699    37426.586 
   18900    299.41922   -1155.3224    316.47759    512.41809    1039.2895    37426.586 
   19000     306.0493   -1195.6792    317.79368    503.29861    804.33707    37426.586 
   19100    300.45988    -1183.449    292.72814    465.23846    563.43428    37426.586 
   19200    296.01323   -1203.5552    310.52729    442.86396     206.7545    37426.586 
   19300    298.56288   -1207.4414    334.47997    474.43681    113.43985    37426.586 
   19400    287.57464   -1223.8463    307.44833    381.41102    256.45423    37426.586 
   19500    298.25684   -1239.0341    323.95575    430.93879    88.302339    37426.586 
   19600    287.78773   -1222.8423    326.07513     402.0035    797.13361    37426.586 
   19700    308.99595   -1193.5431    315.28392    516.22297    564.38384    37426.586 
   19800    305.21932   -1145.3839    320.25241    552.30698    859.69777    37426.586 
   19900    293.80837   -1168.5609    319.06255    476.44307    552.23313    37426.586 
   20000    313.15691   -1184.4156    331.38077    560.22551    497.55402    37426.586 
   20100    311.66676   -1216.6002    294.12172    484.05688    734.47214    37426.586 
   20200    301.93485   -1220.3423    328.86845     471.1419     407.9635    37426.586 
   20300    308.12023   -1208.2459    329.03681    511.32098    447.73727    37426.586 
   20400    299.57915   -1210.3372    326.79829    468.44574     506.7212    37426.586 
   20500    297.21092   -1211.5699    304.72179    434.44886    23.025332    37426.586 
   20600    299.76167   -1202.8922    333.69019    483.60632    330.07107    37426.586 
   20700    297.97081   -1214.4074    331.96724    462.28614   -186.49496    37426.586 
   20800    290.99153   -1229.7843    307.89468    391.33959   -290.10935    37426.586 
   20900    296.48832   -1251.5122    313.63763    400.16135    222.21827    37426.586 
   21000    296.15774    -1235.267    347.85452    449.13156    109.62236    37426.586 
   21100     304.3161   -1234.2991    323.68282    462.74593   -2.9797306    37426.586 
   21200    295.79528    -1222.799    308.36282     420.4721    -107.7603    37426.586 
   21300    300.34031   -1282.1373    332.87109    406.15354     310.4514    37426.586 
   21400    300.08767   -1217.6293     333.2019    469.85221      7.15076    37426.586 
   21500    289.58479   -1233.7742    307.24619    380.35259    192.11881    37426.586 
   21600    298.00586   -1272.4793    319.02855    391.43373   -52.650828    37426.586 
   21700    303.15915   -1252.2193    348.95592     464.8776   -240.35749    37426.586 
   21800    294.53224   -1217.2236     329.9306    441.91523    71.799936    37426.586 
   21900    300.37633    -1256.775    344.34133    443.14865   -32.230616    37426.586 
   22000     303.7702   -1201.8399    339.68015    508.73889    854.34318    37426.586 
   22100    292.90105   -1227.9042    349.66907    443.61159    169.56987    37426.586 
   22200    305.41068   -1204.5139    337.00156    510.78972    885.80252    37426.586 
   22300      319.207   -1214.3106    340.68797    566.94152    421.82812    37426.586 
   22400    300.20892   -1220.8065    349.81284    483.83308    653.77067    37426.586 
   22500    304.26768   -1266.8129    334.30376     440.6346    371.49551    37426.586 
   22600    299.49361   -1259.8309    345.88581    437.65349    352.98203    37426.586 
   22700    303.19005   -1234.4841     325.0293    458.82563   -111.36978    37426.586 
   22800    289.08344   -1225.1227     350.0861    429.58147   -43.348925    37426.586 
   22900    302.87148   -1181.3518    357.46321    542.95418    -261.5131    37426.586 
   23000    305.02043   -1202.2487    348.85061    523.14277    64.602976    37426.586 
   23100    298.52526   -1203.9275      337.103    480.40399    235.86361    37426.586 
   23200    300.03638   -1211.9717    325.00199    467.07844     170.5495    37426.586 
   23300    296.56611   -1205.1226    376.35203    509.61636   -26.606464    37426.586 
   23400    305.59766   -1245.7672    330.51547    463.89412    562.31466    37426.586 
   23500    314.67661   -1222.8897    339.74982     536.9788    201.68323    37426.586 
   23600    298.28888   -1251.3326    349.06064    443.88972    843.22621    37426.586 
   23700    302.91364   -1232.8372    348.88624    483.08203     862.1274    37426.586 
   23800    298.27312   -1219.7136    341.69218    468.06922    91.621266    37426.586 
   23900    302.55083   -1238.9043    352.02593    478.51724    354.13816    37426.586 
   24000    288.36247   -1269.3297    349.25481    381.28947    319.61317    37426.586 
   24100    296.64983    -1282.439    349.33658    405.66238    733.07794    37426.586 
   24200     304.4914   -1322.5265    338.18131    389.80822    1243.5651    37426.586 
   24300    305.59659   -1311.2965    348.58403    416.42856    842.05859    37426.586 
   24400    297.34514   -1269.9169    347.52829    419.51402    698.03073    37426.586 
   24500    308.69293   -1239.9447    344.78166     497.9516    845.07425    37426.586 
   24600    303.70075   -1276.5678    347.86204    441.87944   -111.14363    37426.586 
   24700    297.12046    -1257.036    349.63272    433.48544    155.94632    37426.586 
   24800    297.08169   -1254.6789    351.05997    437.09482    522.38369    37426.586 
   24900    304.50564   -1237.1988    358.95518    495.97408    213.81422    37426.586 
   25000    294.05211   -1251.3692    372.15869    447.83088     24.66907    37426.586 
   25100     298.5556    -1295.078    345.45462    397.74205    199.52438    37426.586 
   25200    294.26437   -1276.8851    350.77191    401.88615   -106.12429    37426.586 
   25300    305.04374   -1279.8833    335.18622    431.94895    325.90238    37426.586 
   25400    298.75972   -1273.6885    356.33399     430.9321   -152.30116    37426.586 
   25500    301.93802   -1244.3579    347.24192    465.51413    519.08952    37426.586 
   25600     300.1379   -1286.4233      344.469    412.55197    250.91872    37426.586 
   25700     307.8111   -1269.0639    351.21683    471.28793   -369.88881    37426.586 
   25800    300.11287   -1276.5792     366.9492    444.76333     -166.531    37426.586 
   25900     301.1824   -1311.0877    337.03188     385.1642    -409.3065    37426.586 
   26000    296.81237   -1298.8989    342.39277    382.99216   -518.68478    37426.586 
   26100    304.76007   -1268.5759    334.70391    441.49389   -272.82531    37426.586 
   26200    303.48361   -1261.5194    367.84269    475.92862   -352.79673    37426.586 
   26300    299.36155   -1257.6084    362.59335     455.9876    430.27635    37426.586 
   26400    300.21638   -1239.4105    367.62112    483.07104    432.97035    37426.586 
   26500    306.22499   -1238.2689    369.93768    513.64575    554.72274    37426.586 
   26600    297.97727   -1259.4114    358.03087    443.37491    1015.2267    37426.586 
   26700    290.18373   -1193.1612    369.89012    486.31256    543.96855    37426.586 
   26800    305.33014   -1177.9368    357.93072     557.9325    36.575233    37426.586 
   26900    300.68858   -1239.7709    351.61991    468.84045   -292.98129    37426.586 
   27000    291.77961    -1252.757     351.8324    415.86118   -366.03658    37426.586 
   27100    293.75285   -1280.7728    351.77793    396.69595   -483.59073    37426.586 
   27200    298.87112   -1253.8382    346.23173    441.18284   -260.71458    37426.586 
   27300    296.93762    -1225.242    376.59769    491.41925   -32.203129    37426.586 
   27400    296.93154    -1202.858    361.69669    498.87479   -265.35575    37426.586 
   27500     297.7567   -1245.3635    364.35356    462.75007   -85.886884    37426.586 
   27600    294.30641   -1224.5887     367.9734    471.57376    37.269848    37426.586 
   27700    300.53505   -1247.0868    368.34809    477.55985   -385.32082    37426.586 
   27800    290.15352   -1232.2314    372.43607    449.65193   -548.26933    37426.586 
   27900    294.57009     -1262.16    361.11508    428.33417    40.245354    37426.586 
   28000    304.93868   -1269.0207    367.52774    474.67895    12.246129    37426.586 
   28100    307.97139    -1270.542    363.61035     482.9267    581.62605    37426.586 
   28200    299.89991   -1312.8109    343.92954    384.55089    187.93276    37426.586 
   28300    296.30439   -1307.9618    357.98851    387.23252     172.7603    37426.586 
   28400     308.3774   -1331.7479     356.2853    416.22803    568.22512    37426.586 
   28500    301.11986   -1343.0651     366.1471     382.0198   -367.04291    37426.586 
   28600    288.08354   -1322.3424    373.50353     351.2667    107.69259    37426.586 
   28700    290.73866   -1319.0033    369.94747    363.03213     71.33716    37426.586 
   28800    299.67041   -1332.0374    367.73665    388.09574    187.60693    37426.586 
   28900    303.76121   -1326.3699    365.96159    410.44977    119.02504    37426.586 
   29000    304.24263   -1277.0563    364.80489    460.77924    311.33805    37426.586 
   29100    301.42883   -1296.9101     365.1212    428.54324    65.806618    37426.586 
   29200    313.87421   -1304.7815    368.71436    480.43036    1109.0612    37426.586 
   29300    297.71239   -1291.3521    370.00139    422.20931    213.31806    37426.586 
   29400    308.90557   -1307.8504    375.05411    461.27802   -194.59559    37426.586 
   29500    292.79475   -1299.6023    367.60794    389.37268    32.130004    37426.586 
   29600    300.09989   -1307.2436    383.77517     430.8663     241.0871    37426.586 
   29700    296.97503   -1338.4773    365.38245    367.13755     357.1868    37426.586 
   29800    309.86341   -1269.4067    372.56181    501.55209    190.26003    37426.586 
   29900      311.294   -1272.7971    366.77102    498.82711    30.597342    37426.586 
   30000    308.30276   -1307.8036    363.33506     446.8853    14.175199    37426.586 
   30100    298.65687   -1323.5824    385.29073    409.53084     631.9603    37426.586 
   30200    290.01618   -1338.7527    375.48805    345.56277       454.91    37426.586 
   30300    298.01036    -1306.967    396.06249    434.00026   -336.87071    37426.586 
   30400    298.85176   -1311.1612    361.80929    399.35007    232.50264    37426.586 
   30500    302.85625   -1348.7709    360.62836    378.63152    265.25109    37426.586 
   30600    309.09984   -1309.0351    361.67972    447.59562    626.90569    37426.586 
   30700    291.17149   -1321.1045    385.33874    378.27562     870.6753    37426.586 
   30800    294.70591   -1313.8068    376.22051    392.40565    669.44488    37426.586 
   30900     295.0284   -1338.3817    377.69108    370.75674    518.84275    37426.586 
   31000    297.85482   -1343.3413    373.49136    374.35295    789.62807    37426.586 
   31100     304.0246   -1289.7778    383.24478    465.51366    973.62172    37426.586 
   31200     306.5965   -1297.8839    386.01172    471.78136    567.03969    37426.586 
   31300    294.26993   -1279.8768    382.71798    430.86559    567.34313    37426.586 
   31400    298.24136   -1266.7599    380.87681    460.06421    200.40326    37426.586 
   31500    312.02136    -1278.332    375.96738    505.77103    152.98909    37426.586 
   31600    298.65367   -1264.4028    373.01999    456.42518      296.807    37426.586 
   31700    301.35366   -1262.0371    357.97421    455.93005    69.679665    37426.586 
   31800    299.96618   -1280.0043    390.50708    464.23405   -297.60171    37426.586 
   31900     295.3731   -1272.8789    395.11338    455.23748    145.01274    37426.586 
   32000    292.73393   -1274.5685    383.68199    430.20599    53.967793    37426.586 
   32100    299.81062   -1257.5287    382.12939    477.62999    543.23517    37426.586 
   32200    308.89081   -1269.3115    393.72746     518.4236    246.07407    37426.586 
   32300    307.00097   -1306.7298    358.05529    436.80442    51.302461    37426.586 
   32400     292.2899   -1312.4298    377.74688    384.40567   -190.78529    37426.586 
   32500       314.34   -1259.3569    383.34033    542.58295    331.39668    37426.586 
   32600    298.87589   -1314.0124    391.88677    426.68525     493.2568    37426.586 
   32700    301.49734   -1258.6975    379.28148    481.22536    931.12811    37426.586 
   32800    294.03786   -1282.5652    373.63847    418.05036    676.10096    37426.586 
   32900    292.18541   -1258.3924    379.07131    439.29601     438.6684    37426.586 
   33000    297.73962   -1248.8217    405.54693    500.40821    487.37498    37426.586 
   33100      296.787   -1261.0431    384.96649    463.30724    273.28399    37426.586 
   33200    290.85534   -1232.1864    385.69357    466.12174    17.742571    37426.586 
   33300    306.95594   -1276.9464     385.0254    493.35474   -86.327865    37426.586 
   33400    302.38135   -1256.2322    384.88716    493.28581    61.976953    37426.586 
   33500    301.17604   -1292.3668    404.99353    471.81805   -232.27373    37426.586 
   33600    294.94864    -1299.065    392.18945    424.21187    -120.9207    37426.586 
   33700    298.33052   -1265.4599    395.62003    476.50973    50.191104    37426.586 
   33800    306.15498   -1271.9109    414.26143    524.01151    39.440247    37426.586 
   33900    294.05753   -1306.3703    386.71753    407.41313    295.19338    37426.586 
   34000    289.86819   -1327.4305     395.3649      376.094     306.8266    37426.586 
   34100    294.79929   -1290.2324    394.09296    434.27391     395.1488    37426.586 
   34200    297.92197   -1277.9754    415.27233    481.80285    697.95587    37426.586 
   34300    295.97826   -1245.9983    386.34668    476.08235    810.54208    37426.586 
   34400    297.93783   -1264.0117    392.31502    472.88081    935.32895    37426.586 
   34500     304.3353   -1295.4328    396.62386    474.63995    701.88332    37426.586 
   34600    302.96764   -1336.6146    381.38862    412.05072    421.82578    37426.586 
   34700     306.7914   -1323.9386    370.39229    430.98685    75.938234    37426.586 
   34800    293.59099   -1321.0468    396.58836    400.50199   -71.665252    37426.586 
   34900     300.4827   -1305.9679     382.2844    432.37882    239.60811    37426.586 
   35000    294.35454   -1278.7071    406.62628    456.32545    120.30969    37426.586 
   35100    298.37432   -1307.1394    395.00237    434.41026   -207.77644    37426.586 
   35200    317.04021   -1338.1651    396.01631    488.63668    118.60007    37426.586 
   35300    305.03412   -1326.7729    396.35396    446.18372    397.60367    37426.586 
   35400    297.44747   -1359.3969    389.70596    372.67354    359.38661    37426.586 
   35500    297.21507   -1349.9717     393.7566    385.10056    25.411316    37426.586 
   35600    299.67938   -1309.2008    402.20238    445.43859   -58.477422    37426.586 
   35700    300.91204   -1345.7145    401.89603    414.18143    172.26449    37426.586 
   35800    294.26495   -1312.6752    390.14936     405.4761   -495.91579    37426.586 
   35900    307.29657    -1318.172    409.86547    478.50641    -268.3828    37426.586 
   36000    292.92099    -1349.555    392.24102    364.62271    -431.1749    37426.586 
   36100    290.71626    -1382.265     383.8063    313.52823   -337.44093    37426.586 
   36200    301.03267   -1314.4771    395.55933     439.6265   -119.62432    37426.586 
   36300    305.55643   -1336.8686    392.40859    434.49979     42.81452    37426.586 
   36400    290.87764   -1310.2009    416.91091    419.42524    94.440771    37426.586 
   36500    306.86185   -1351.4482    401.31621    434.71908    301.15169    37426.586 
   36600    292.50543   -1334.1604    414.22654    400.12749    503.30245    37426.586 
   36700     315.3532   -1337.8721    383.53254    468.83251    35.585805    37426.586 
   36800    297.88126   -1349.6631    404.02757    398.68669   -154.67095    37426.586 
   36900    301.03708   -1372.5323    411.06355     397.0955   -493.68462    37426.586 
   37000     296.1068   -1360.5718    389.86342    365.60572   -474.60424    37426.586 
   37100     295.2437   -1378.0363    391.07677    345.45944   -64.733059    37426.586 
   37200    295.42596   -1394.5223    380.18156     318.9008    51.144099    37426.586 
   37300    298.10585   -1349.0944     394.5989    390.84023    407.66637    37426.586 
   37400    301.12236   -1347.8324    400.27109     411.3878     492.6891    37426.586 
   37500    300.20784   -1304.2055    381.33894    431.95529    770.10485    37426.586 
   37600    298.41869   -1338.0334    388.81246    397.52659    571.01407    37426.586 
   37700    305.03966   -1362.4165    401.90502    416.11615    434.74564    37426.586 
   37800    293.73133   -1329.2212    399.28335    395.65585    695.77122    37426.586 
   37900    301.18829   -1280.4527    399.04603    477.83992     483.7318    37426.586 
   38000    304.78672   -1261.6334    407.94837     521.8011    151.64606    37426.586 
   38100    302.43114   -1289.1432    401.70196    477.41434   -344.69716    37426.586 
   38200    300.82735   -1306.5249    384.48788    435.58074   -496.54883    37426.586 
   38300    306.72173   -1337.6519    393.09274     439.6596   -85.246575    37426.586 
   38400    299.21047   -1353.3744    382.85297    379.79942   -413.88956    37426.586 
   38500    298.15893   -1364.5036    397.74219    378.81385    234.29889    37426.586 
   38600    305.79527   -1391.9639    377.86441    365.93822    358.83626    37426.586 
   38700    289.60643   -1320.2148    401.31847     388.0819    735.54779    37426.586 
   38800    295.05779   -1383.2979    414.47538    362.75744    329.04559    37426.586 
   38900    312.26017    -1360.458    400.86991    449.62537    746.36685    37426.586 
   39000    308.95973   -1349.0636    414.13469    459.38983    542.85086    37426.586 
   39100    298.17117   -1364.1047    400.44305    381.96885    84.463178    37426.586 
   39200    299.25417   -1363.5551    395.95698    382.91986     797.4963    37426.586 
   39300    289.51004   -1354.0205    405.21175    357.73452    181.61289    37426.586 
   39400    287.58093   -1353.8344    399.07967    343.08255   -327.94572    37426.586 
   39500    297.76245   -1288.9143    390.34897    445.22066    208.69989    37426.586 
   39600    290.41585   -1342.9215    401.47189     369.1816   -178.96111    37426.586 
   39700    295.61895   -1335.4155    438.51977    437.21675   -94.437916    37426.586 
   39800    298.28879   -1334.4992    422.43282     434.0949   -105.96177    37426.586 
   39900    308.15502   -1343.7405     400.1717    447.11826   -314.86506    37426.586 
   40000    303.51718   -1299.2956    405.77919    476.24038    111.75209    37426.586 
   40100    307.81012   -1294.5472    420.97893    515.56231   -152.21659    37426.586 
   40200    312.31402    -1310.612     404.0327    502.87716    103.85826    37426.586 
   40300    302.89223   -1316.9502    413.48547    463.47167   -903.53005    37426.586 
   40400    304.00871   -1313.8522     419.6263    477.74912   -360.14907    37426.586 
   40500    304.66409   -1324.7506    405.25352    455.43569   -300.72595    37426.586 
   40600     305.0777   -1356.3372    407.93642    428.39854    81.488652    37426.586 
   40700     310.3628   -1307.4323    426.17141    519.38976      411.388    37426.586 
   40800    314.92466   -1333.4848    426.28302    514.03633     268.0246    37426.586 
   40900     298.7135    -1313.999    426.48011    460.55914    74.672003    37426.586 
   41000     304.0584   -1353.3607    440.95074    459.78928    522.81811    37426.586 
   41100    306.82656    -1367.471     433.0533    450.27411    522.18977    37426.586 
   41200    305.70439   -1340.7141    433.57668    472.49009    233.13832    37426.586 
   41300    293.61489   -1403.2181     421.9603    343.81045    21.680313    37426.586 
   41400    294.12485   -1386.2749    405.40148    346.49627    103.53716    37426.586 
   41500    291.07911   -1410.6576    405.81435     308.7812   -49.648029    37426.586 
   41600    299.44371   -1372.8633    412.78849     391.2986    547.85455    37426.586 
   41700    306.97245   -1416.5184    389.11699    357.94879    67.674635    37426.586 
   41800    308.87187   -1378.2275    398.25562    413.95036    227.36874    37426.586 
   41900    297.91018   -1344.4424    405.39208     405.4023   -124.67344    37426.586 
   42000    297.20163   -1371.6512    412.01616    381.61997    284.72047    37426.586 
   42100    303.44666   -1334.4946    422.30926    457.25317    182.12104    37426.586 
   42200    307.31752   -1347.9057    435.73966    474.74148   -396.79939    37426.586 
   42300    306.42052   -1327.9055    419.60157    474.55547   -95.039848    37426.586 
   42400    293.29002   -1362.3341    422.25646    383.52453   -381.88917    37426.586 
   42500    309.39096   -1337.4801    445.50791    504.29262     -214.497    37426.586 
   42600    294.73096   -1377.4894    401.25101     353.8666   -31.985231    37426.586 
   42700    299.98191   -1414.3331    427.16298     366.6322   -410.81409    37426.586 
   42800     295.0101   -1401.5801    401.50233    331.28696    30.977127    37426.586 
   42900    303.04594   -1410.6418    401.19246    358.18071    312.34442    37426.586 
   43000    295.48879   -1379.7649    419.23202    372.99221   -200.57857    37426.586 
   43100    293.10435   -1347.5794      422.419    397.60388    191.87245    37426.586 
   43200     301.1305   -1376.1596    418.65281    401.47905   -168.10051    37426.586 
   43300    306.75349   -1361.3927    435.25057    458.21989    296.61947    37426.586 
   43400    297.83627   -1343.5329    431.51845    432.10466    69.940439    37426.586 
   43500    295.92705   -1367.7798    422.41427    390.13736   -206.51725    37426.586 
   43600    304.34316   -1390.2525    426.50398     409.7358     79.58252    37426.586 
   43700    303.84194   -1393.8643    407.88203    385.24013     282.0429    37426.586 
   43800    289.37973   -1375.8071    410.44386    340.59202    456.70077    37426.586 
   43900    309.64836    -1406.588     436.5181    427.35652    366.00732    37426.586 
   44000    296.23583   -1404.6108    424.47885    356.76451    655.55248    37426.586 
   44100    293.93143    -1347.492    436.85409    415.85886      130.355    37426.586 
   44200    300.98595    -1405.887    409.60383    362.05028   -323.79271    37426.586 
   44300    290.69953   -1407.0067    404.61705    309.52173   -519.26875    37426.586 
   44400    297.39083   -1358.4744    407.28283     390.9173    -815.8473    37426.586 
   44500     292.7384   -1326.6637    417.88118    412.33024   -91.020709    37426.586 
   44600    297.23846   -1388.7933    424.28596    376.91388   -51.862873    37426.586 
   44700    313.09436   -1363.4864    418.96041    468.45203    658.97237    37426.586 
   44800    299.08414   -1352.3818    439.68231    437.05126    438.65427    37426.586 
   44900    312.00651   -1340.8288    412.26942    479.50931     922.6585    37426.586 
   45000    302.07782   -1338.1137     420.2522    445.39954    234.36471    37426.586 
   45100    300.93029   -1357.8172    424.16177    424.42686    31.802501    37426.586 
   45200    295.26375   -1324.8168    423.69352    431.38619   -172.37144    37426.586 
   45300    297.09445   -1381.5256    450.38248    409.62823   -96.198504    37426.586 
   45400    301.43391   -1378.9703    421.90452    403.28929    203.00734    37426.586 
   45500     298.8984   -1374.2504    437.77393    412.43603    54.767202    37426.586 
   45600    303.07381   -1376.0735    441.42595    433.10828    330.71669    37426.586 
   45700     301.7185    -1399.829     404.3037    366.11412   -104.36421    37426.586 
   45800    301.29931   -1376.5574    441.97724    425.16752    636.45696    37426.586 
   45900    290.68237   -1335.5763    433.16832    409.42594    415.00851    37426.586 
   46000    302.61442   -1343.7851    409.44611    431.34362    417.82353    37426.586 
   46100    305.82947   -1337.5334    428.78391    471.44257   -456.60797    37426.586 
   46200    298.30262    -1351.874    415.95332    410.30308   -117.04185    37426.586 
   46300    303.11184   -1305.9228    439.75421    501.75892   -8.2467957    37426.586 
   46400    296.31018   -1290.6615    445.10011    491.67059   -84.164595    37426.586 
   46500    314.21833   -1356.0871    428.94661    490.91005     294.3882    37426.586 
   46600    298.48876   -1395.7729    428.46674     379.7576    626.78702    37426.586 
   46700    298.45486   -1331.3281    430.65118    446.23391    426.15283    37426.586 
   46800    294.55006   -1330.9894    413.32682    411.62605    456.79817    37426.586 
   46900    301.09814   -1381.6427    416.95736    394.15445     775.5091    37426.586 
   47000    296.57713   -1408.4932    434.88642    364.82994    300.45425    37426.586 
   47100    311.16704   -1391.8481    420.61201    433.04413    892.30285    37426.586 
   47200    296.11044   -1374.5546    419.84256    381.61856    227.17018    37426.586 
   47300    306.37661   -1362.1565    413.56227    434.06701    208.83243    37426.586 
   47400    286.95169     -1330.94    426.84484    390.90247   -89.017241    37426.586 
   47500    297.91462   -1312.0853    418.18001    450.56745    36.886678    37426.586 
   47600    282.76019   -1306.9701    418.94792    388.05945   -15.281879    37426.586 
   47700    293.61358   -1313.4729    448.35359      459.943    218.51556    37426.586 
   47800    292.70817   -1335.9647    402.63898    387.65061    258.86898    37426.586 
   47900    305.56093    -1308.548    422.71551    493.14757    102.08483    37426.586 
   48000     302.3055   -1342.5083    419.61645     441.3967    393.86111    37426.586 
   48100    294.78221   -1354.2314    439.20316    415.30809    492.93258    37426.586 
   48200    297.50989   -1390.3961    435.45198    387.70202    597.95454    37426.586 
   48300    302.07656   -1327.8769    407.49914    442.87759    464.08562    37426.586 
   48400    311.52919   -1333.1997    397.72461    470.43942    211.32483    37426.586 
   48500    289.87618    -1319.094    440.02641    429.12814   -256.04755    37426.586 
   48600    300.98885   -1366.0728    407.93283    400.20664      418.276    37426.586 
   48700    297.99891   -1373.9506     412.0171    382.91962    364.89545    37426.586 
   48800    299.86781   -1367.5632    414.82344     400.5476    79.941217    37426.586 
   48900    292.27931   -1362.3045      415.142    371.87836   -176.66664    37426.586 
   49000    295.61009   -1363.7854    414.83952    385.12658    216.21615    37426.586 
   49100    306.63542   -1408.7656    426.97663    402.04029     319.4992    37426.586 
   49200    305.28298   -1383.0445    408.52492    403.20619    685.86104    37426.586 
   49300     294.3722   -1390.3046    434.99885    373.18021     594.4925    37426.586 
   49400    298.59126   -1335.1131    419.66819    432.08144    157.61905    37426.586 
   49500    299.79699   -1397.8932    410.53009    365.60462   -354.08326    37426.586 
   49600    294.68541   -1406.0168    446.55258    370.43525    770.41439    37426.586 
   49700    309.02307   -1344.6542    425.51093    475.46127    651.04032    37426.586 
   49800    289.40595    -1381.263    441.28838    366.09888    614.71454    37426.586 
   49900    295.36617   -1392.2707    435.70433    376.40534    166.65042    37426.586 
   50000    295.26908   -1348.2941    429.73187     413.9713   -374.62418    37426.586 
   50100    303.30739    -1371.824    436.71016    433.69617    27.566496    37426.586 
   50200    298.19858    -1368.588    421.79805    398.96426   -289.56886    37426.586 
   50300    299.67343   -1366.7553    431.11465    416.76952   -376.66177    37426.586 
   50400    303.17802   -1323.0207    422.22714    467.43256    116.00913    37426.586 
   50500    298.54752   -1371.1325      421.438    397.63445   -92.381376    37426.586 
   50600    291.04927   -1396.7215    446.55892    363.32716   -55.440866    37426.586 
   50700    303.15133   -1377.1619    435.84107     426.7849   -17.325927    37426.586 
   50800    299.25714   -1373.6921     420.4151    397.25443   -745.37812    37426.586 
   50900     296.4143   -1357.3318    418.25196    398.62201   -525.99657    37426.586 
   51000    300.11946   -1363.9852    430.18528    420.62315    414.71761    37426.586 
   51100    293.63065   -1342.6364    435.95357    418.45653   -304.60397    37426.586 
   51200    300.39984   -1310.2623    435.97299    481.39904    -192.5214    37426.586 
   51300    294.67086   -1363.0098    430.05587    396.87989   -519.51614    37426.586 
   51400    291.03974   -1374.0708    416.41218    355.78817     24.80928    37426.586 
   51500    297.05893   -1380.6549     423.6126    383.56874    549.77048    37426.586 
   51600     294.2404    -1406.767    416.96054    338.08475    370.30867    37426.586 
   51700    292.14161   -1349.8162    409.26483    377.86807    225.08514    37426.586 
   51800    297.95952   -1388.1634    432.92272    389.43464   -62.881637    37426.586 
   51900    294.09797   -1391.2245    411.96059    347.98443   -564.23335    37426.586 
   52000    294.58374   -1347.6902    408.79961    390.55001   -487.88924    37426.586 
   52100    306.69973   -1396.8143    406.65625    393.96139   -641.74305    37426.586 
   52200     297.3572   -1361.8707    414.73807    394.82445   -132.45261    37426.586 
   52300    300.74468   -1395.0631    402.97372    365.15526   -355.48449    37426.586 
   52400    294.28067   -1395.8119    426.24985    358.51089   -427.06668    37426.586 
   52500    296.36145   -1351.0153    410.47538    396.92347   -112.16143    37426.586 
   52600    300.30103    -1319.936    429.90407    465.21054   -108.80302    37426.586 
   52700    295.24136   -1356.5182    427.68864    403.57892   -173.52872    37426.586 
   52800     302.5546   -1438.6989    411.08433     337.7981    78.016711    37426.586 
   52900    308.65595   -1420.9832    434.26761    406.23214    34.307005    37426.586 
   53000    305.30702   -1435.9933    396.52051    338.36147    381.70825    37426.586 
   53100    298.66593   -1388.5999    438.04108    397.30457    154.88779    37426.586 
   53200    304.13665   -1358.6862    445.48356    459.34979    76.263296    37426.586 
   53300    303.69361   -1341.4096    414.79816    443.94151    435.85082    37426.586 
   53400    293.42959   -1347.2865    448.85993    425.80543    330.85905    37426.586 
   53500    313.98555   -1346.8113    440.12343    510.31209   -52.633842    37426.586 
   53600    301.21622   -1318.3357    438.43265     479.4696      436.702    37426.586 
   53700    301.36083   -1345.3902    467.19103    481.82611    356.46223    37426.586 
   53800    299.20855   -1351.9641    407.75952    406.10755   -380.63097    37426.586 
   53900    298.24675   -1347.5907    419.07392    417.45476   -417.46173    37426.586 
   54000    309.63067   -1337.3765    440.89215    500.86228   -214.45044    37426.586 
   54100     312.9139   -1327.9321    446.91646    531.14801   -404.75901    37426.586 
   54200    293.99294   -1327.4375    427.05374    426.39067   -300.74782    37426.586 
   54300    311.58605   -1312.1018    416.05696     510.1263   -646.85788    37426.586 
   54400    312.09016   -1339.4284    438.54979    507.56758   -564.46389    37426.586 
   54500    302.65517   -1320.0391    446.03658    491.86401   -132.88527    37426.586 
   54600    308.09723   -1298.8634    429.01225    520.57516    27.145956    37426.586 
   54700    302.15622   -1351.2297    423.34676    435.73191   -355.14754    37426.586 
   54800    298.15235   -1305.2615    441.07952    481.36359   -36.222774    37426.586 
   54900    287.48156   -1412.1701    459.84203    345.06076   -253.58793    37426.586 
   55000    292.19304     -1365.87    424.35178    377.13332   -135.65128    37426.586 
   55100    305.10345   -1374.6614    444.90263    447.15673   -585.76169    37426.586 
   55200    297.85366   -1340.9987    450.40361     453.6025     231.3511    37426.586 
   55300    292.04045   -1373.9296    438.58728    382.62052    426.93895    37426.586 
   55400    298.83628   -1371.3383    456.71879    434.01264    446.19211    37426.586 
   55500    291.60552    -1369.825    459.48923    405.66429    2.8161084    37426.586 
   55600     308.3155   -1393.0701    423.81806    422.15926   -38.290125    37426.586 
   55700    333.56052    -1370.372    413.38288    548.35161     122.8844    37426.586 
   55800     312.8171   -1456.2734     448.6778    404.13118   -631.36344    37426.586 
   55900    298.44761   -1427.0646    447.66312    367.47656   -542.09358    37426.586 
   56000     297.8896   -1429.3403    424.67473    339.69429   -682.38273    37426.586 
   56100    299.00402   -1398.7893    423.96939    374.56928   -872.61103    37426.586 
   56200    308.06335   -1392.5607    430.72435    428.43704   -899.16088    37426.586 
   56300    299.56748   -1389.3279    438.13599    400.74003   -185.10518    37426.586 
   56400    304.96425   -1387.1687    436.38816    425.50682   -222.10823    37426.586 
   56500     294.0069   -1380.2911    421.78708    368.33343   -394.80875    37426.586 
   56600    304.04787   -1391.2536    414.90113    395.79923   -48.140306    37426.586 
   56700    298.13015   -1437.9285    419.16907    326.68592   -159.29408    37426.586 
   56800    294.15545    -1435.157    430.38712    322.73787    278.82554    37426.586 
   56900    311.65932    -1422.987    426.67097    410.18584   -68.270167    37426.586 
   57000     300.1521    -1381.811    472.23537    444.99475    110.27898    37426.586 
   57100    296.84329   -1418.4617    428.70271    349.87882    169.27834    37426.586 
   57200    299.16658    -1443.136    394.46274    301.44943    469.73388    37426.586 
   57300    288.99575   -1419.0748    436.04188    321.18944    648.91208    37426.586 
   57400     289.6845   -1418.6531    425.86597    314.54347   -149.22054    37426.586 
   57500    290.76385   -1425.1332    434.01653    321.08506   -455.75552    37426.586 
   57600    307.31608   -1453.2645    431.58242    365.21896   -538.99075    37426.586 
   57700    297.20285   -1420.5066    414.77745    335.53137    -120.8988    37426.586 
   57800    291.48454   -1388.0563    412.90099    340.29878   -16.744857    37426.586 
   57900    308.80725   -1395.1258    442.42865    440.93344    203.83416    37426.586 
   58000    290.26455   -1425.6668    423.39594    307.67754   -15.855858    37426.586 
   58100    303.27122   -1398.9843    414.11823    383.78067   -127.91551    37426.586 
   58200    308.15231   -1366.7984     427.9062    451.78267   -231.63117    37426.586 
   58300     294.1235   -1425.7223    443.75605    345.39736    118.05196    37426.586 
   58400    306.15637   -1381.7471     448.2308    448.15097    72.645771    37426.586 
   58500    306.66137   -1405.6494    456.47006    434.76702     623.3745    37426.586 
   58600    301.57064    -1406.935    407.67544    361.71259    -157.3554    37426.586 
   58700    291.70522   -1399.7094     395.9347    312.67537   -492.80113    37426.586 
   58800    299.09042   -1417.6486    432.67087    364.80127    120.83478    37426.586 
   58900    304.73498   -1424.0731     400.9353    352.11485   -386.59335    37426.586 
   59000    299.55493    -1451.148    393.65383    294.38112   -497.84374    37426.586 
   59100    296.94349   -1424.1042     425.5349    341.52077   -230.78339    37426.586 
   59200    297.16355    -1412.865    412.45359    340.67174    169.83137    37426.586 
   59300    299.22721   -1405.9892    440.31704    384.72421    926.85933    37426.586 
   59400    302.08253   -1442.2367      425.676    346.72161    633.13142    37426.586 
   59500    307.93442   -1420.5055    441.70238    410.88844    637.86766    37426.586 
   59600    309.51715   -1386.6874    452.33209    462.47901    514.83122    37426.586 
   59700    301.09557   -1425.0578    425.12552    358.89586    449.34639    37426.586 
   59800    293.16828   -1445.0558    400.22406    278.22096    275.75869    37426.586 
   59900    295.09738   -1439.7229     442.8269    334.86262    377.78245    37426.586 
   60000    310.67725   -1409.4889     411.1209    403.70177    695.80071    37426.586 
   60100    307.15543   -1391.5747    429.37729    423.97855   -156.37881    37426.586 
   60200    300.75995   -1388.9577    435.32519     403.6811   -264.05279    37426.586 
   60300    304.51634   -1396.6266    429.19183    406.83121   -147.37935    37426.586 
   60400    297.33878   -1397.1713    438.13583    382.83856   -826.46102    37426.586 
   60500    317.73826   -1367.5637    478.02666    544.39873   -63.991081    37426.586 
   60600     301.3208   -1371.2055     445.2391    433.87816   -213.48254    37426.586 
   60700    299.18561   -1409.0055    436.47967    377.68276    232.85171    37426.586 
   60800    295.11414   -1409.0751    434.72471    357.48388   -212.27125    37426.586 
   60900    300.55707   -1399.7435    445.04741    401.70188    -252.8613    37426.586 
   61000     304.2579   -1379.7917    421.26223    414.57012    66.611356    37426.586 
   61100    306.45124   -1410.4811    419.50974    392.02666    18.462811    37426.586 
   61200    301.24295   -1425.2757    453.92988    388.14747    482.26173    37426.586 
   61300    305.34805   -1448.2483    459.64754    389.41859     452.7221    37426.586 
   61400    296.95272   -1423.1302    467.21579    384.21733    333.13492    37426.586 
   61500    300.83962   -1409.7277    444.40574    392.35119    582.93307    37426.586 
   61600    293.47919     -1423.73     411.8176    312.54352    98.137387    37426.586 
   61700    299.93213   -1437.4838    445.23062    361.32441    151.40466    37426.586 
   61800    296.81187   -1445.5423    451.67333    345.62712    30.169375    37426.586 
   61900    295.07843   -1403.8382    449.93232     377.7673   -108.55151    37426.586 
   62000    298.62704   -1379.5302    449.66069    417.81831   -42.235422    37426.586 
   62100    303.44558   -1399.2468    465.50642    435.69326    46.213177    37426.586 
   62200    305.44896   -1383.0007    427.46545    422.93956   -189.22272    37426.586 
   62300    314.53056   -1406.1907    427.95626    441.22514    -380.4128    37426.586 
   62400    300.60534   -1324.9464    443.60217    475.27156   -345.83227    37426.586 
   62500    299.26124   -1392.5919    437.95505    395.91309   -510.52119    37426.586 
   62600    302.26202   -1404.7684    471.57512    430.89902    267.36665    37426.586 
   62700    306.14875   -1366.7507    466.83001    481.71226    327.19154    37426.586 
   62800    307.21197   -1369.1048    463.04461    480.37098    13.807083    37426.586 
   62900     301.4767    -1350.655    440.13859    450.03178    213.30421    37426.586 
   63000    293.89716   -1395.8299    431.81022    362.32239   -243.95596    37426.586 
   63100    310.53569   -1401.5119    472.61045    472.52948    551.48478    37426.586 
   63200    302.45184   -1393.6939    479.68173    450.93678    241.34521    37426.586 
   63300    297.05226   -1402.9676    440.75825    378.37163   -120.87071    37426.586 
   63400    291.90577   -1389.7141    440.99325    368.63424   -217.48602    37426.586 
   63500    301.64167   -1370.4226    483.99533    474.86536   -286.87237    37426.586 
   63600    301.02035   -1396.7585    441.40417    403.13445   -10.828727    37426.586 
   63700    294.42303   -1448.8481    446.70465    326.57198   -118.85718    37426.586 
   63800     298.0564    -1434.577    460.48565    371.02118    80.004616    37426.586 
   63900    292.63925   -1420.8426    460.01956     359.8422    147.28363    37426.586 
   64000    295.96066   -1397.6304    436.43258    374.45683   -477.03112    37426.586 
   64100    300.68407   -1423.6019    443.91927    377.28848   -445.96991    37426.586 
   64200    291.84229   -1406.2945      445.409    356.18315   -285.95775    37426.586 
   64300    294.67092   -1395.4837    434.99489     369.3453   -404.73028    37426.586 
   64400    306.75866   -1450.5728    444.42932    378.24196   -77.901598    37426.586 
   64500    297.39861   -1413.7125    443.04108    371.47262    168.12282    37426.586 
   64600    293.70896   -1393.9886    467.33572    398.83986    167.00651    37426.586 
   64700    308.44527   -1358.3736    452.53774    486.16114    104.13205    37426.586 
   64800    300.64339   -1359.9263    449.90535    446.76659   -619.72413    37426.586 
   64900    300.42123   -1361.8484    463.45234    457.38879   -249.83023    37426.586 
   65000    292.84386   -1411.4179    458.13357    368.30433   -289.73656    37426.586 
   65100    289.66687   -1370.9715    475.00235    411.28186   -290.38467    37426.586 
   65200     297.2911   -1346.4025      490.998    486.25435   -139.72619    37426.586 
   65300    290.33026   -1382.8028    438.68761    366.12972    307.45054    37426.586 
   65400    297.34579   -1382.4289    444.07129    403.54798     178.4949    37426.586 
   65500    298.95044   -1392.9505    444.15364    400.35042    122.81811    37426.586 
   65600    301.51865   -1391.2843    416.60624    386.05949   -42.708113    37426.586 
   65700    295.55996   -1402.4477    441.87309    373.27164    121.39197    37426.586 
   65800    305.75661   -1407.1197    448.87646    421.61997   -201.69957    37426.586 
   65900     298.1272   -1406.9131    462.76453    401.28349    289.55226    37426.586 
   66000    303.46525   -1401.7767    475.35086    443.09655     116.1587    37426.586 
   66100    290.59442   -1432.6536    432.27053    311.05394     -34.4265    37426.586 
   66200    299.85912   -1426.4655    434.57448    361.35716   -258.10506    37426.586 
   66300    287.08825   -1448.6468    419.88627    266.85338   -4.9576492    37426.586 
   66400    288.90569   -1433.0477    444.26716    315.03534    292.55565    37426.586 
   66500    297.75048   -1442.2714    463.45086    364.91139    421.97293    37426.586 
   66600    300.95428   -1427.1396    436.78502    367.83595    260.39674    37426.586 
   66700    310.22498   -1440.1202    464.40462    424.31315    54.152539    37426.586 
   66800     290.5116   -1391.2348    440.46979     360.2983    80.143504    37426.586 
   66900     306.3254   -1440.0543    445.68271    388.05849   -131.53654    37426.586 
   67000    291.75592   -1453.7835    459.68145    322.57675   -63.535272    37426.586 
   67100     289.9085   -1405.6307    446.88543    349.59626   -233.65161    37426.586 
   67200    303.53795   -1421.5267    455.41025    403.73401   -43.279621    37426.586 
   67300     285.5925   -1390.3303    463.09357     361.6269   -121.04603    37426.586 
   67400    302.72414   -1390.2664     461.8592    437.77065    224.08828    37426.586 
   67500    311.79467   -1387.1538    464.98505    484.94394   -293.19817    37426.586 
   67600    283.53658   -1413.4767    464.21823    330.32697    9.1941925    37426.586 
   67700    301.19954   -1392.6939    449.11483     415.7183    63.735186    37426.586 
   67800    297.23855   -1395.8868    466.46455    411.99936    238.94144    37426.586 
   67900     300.2059   -1399.2005    468.95539    424.56808     335.9054    37426.586 
   68000    306.09637   -1420.5419    451.49597    412.35055     458.4362    37426.586 
   68100    296.65399   -1421.3231    464.42549    381.88596    464.01095    37426.586 
   68200    299.09063    -1402.321    439.69114    387.15013    486.35733    37426.586 
   68300    296.46559   -1431.4035    472.83353    379.36341      266.801    37426.586 
   68400    300.76795   -1422.6144    442.84635    377.58163     348.0725    37426.586 
   68500    291.87227    -1433.825    442.14548    325.52443   -170.21208    37426.586 
   68600    290.83663   -1450.7189    465.05246    326.86364   -428.66424    37426.586 
   68700    301.30463   -1409.4738    437.56113    387.85903   -308.07315    37426.586 
   68800     305.9422   -1410.8926    460.17536    429.98356    202.42368    37426.586 
   68900    305.75421   -1388.0198    464.71175    456.54436    187.53968    37426.586 
   69000    304.85224   -1408.5158    480.42535    447.69141    336.76739    37426.586 
   69100    303.74283   -1442.3372    449.69576    378.13365     599.0707    37426.586 
   69200    293.96593   -1468.6236    423.69651    281.72543    187.06632    37426.586 
   69300    306.13954   -1460.7041    465.59421    386.48147    297.53662    37426.586 
   69400    293.15403   -1440.1633    451.77069    334.59577    251.58006    37426.586 
   69500    293.38581   -1379.7536    468.22612    412.50699    439.34801    37426.586 
   69600    298.90555   -1406.5288    445.86144     388.2774    208.89662    37426.586 
   69700     312.6327     -1450.07    432.83933    393.66396    28.044711    37426.586 
   69800    307.48922   -1382.2184    462.74472     468.2087    23.426443    37426.586 
   69900    306.87794   -1402.5548    457.62405    439.99294    61.599462    37426.586 
   70000    306.47553   -1381.1596    463.16164    465.10964   -20.702202    37426.586 
   70100    294.05124   -1389.5113    460.35037    397.87657    114.19732    37426.586 
   70200    294.84133   -1344.0092    454.38749    440.98143    365.42216    37426.586 
   70300    306.67674   -1391.0599    456.30703    449.26278   -374.13734    37426.586 
   70400    308.96854   -1412.3247    450.13154     432.1653   -208.71967    37426.586 
   70500     300.7927   -1506.5034    437.15301    288.11091   -255.72553    37426.586 
   70600    291.92303   -1443.6441    446.00208    319.79097    178.46793    37426.586 
   70700    301.03162   -1340.9492     467.8687    485.45905    -304.5922    37426.586 
   70800    296.12082   -1349.3748      473.737    460.73955   -243.72592    37426.586 
   70900    303.59302   -1387.7593    452.67907    435.01881   -9.0307815    37426.586 
   71000    308.28426    -1398.283    463.89175    456.87913    349.32966    37426.586 
   71100    296.66988   -1357.9452    472.93538     453.8455    31.819609    37426.586 
   71200     294.7318   -1398.4868    448.35888    379.98095    53.535599    37426.586 
   71300     300.6391   -1367.6101    474.08505    463.24313   -408.14999    37426.586 
   71400    304.18009   -1353.9416     452.9294    471.73623   -539.10554    37426.586 
   71500    303.29311   -1365.3596    445.69644    449.08241   -588.35251    37426.586 
   71600     304.4722   -1356.2748    470.95849    488.75045   -58.366798    37426.586 
   71700    294.38484   -1347.5566    477.26613    458.25259   -124.74097    37426.586 
   71800    292.14208   -1360.8743    456.66096     414.2082   -472.15266    37426.586 
   71900    307.36987   -1404.6813    452.82281    435.28532   -46.103451    37426.586 
   72000     294.4234   -1352.5913    446.89428    423.02005   -466.07183    37426.586 
   72100    301.99348   -1357.0972    469.80565    475.58882   -237.39812    37426.586 
   72200      301.529   -1372.4767    472.00406     460.3116   -537.83238    37426.586 
   72300    298.48645    -1357.197    452.02933    441.88564     -57.4124    37426.586 
   72400    307.29559   -1345.7312     452.5164    493.59376    437.13661    37426.586 
   72500     292.9259   -1359.9461     457.7875     419.8003    279.73538    37426.586 
   72600    311.66931   -1401.2209     453.7511    459.07706    473.41832    37426.586 
   72700    307.10659   -1435.4709     434.2397    384.72437    519.98105    37426.586 
   72800    303.55559   -1396.0114    442.60505    416.52373    819.97446    37426.586 
   72900    297.96204   -1398.3009    453.30014    399.68601    247.16045    37426.586 
   73000    296.17394   -1429.4704    433.62098    340.76774    574.87395    37426.586 
   73100    292.54439   -1414.5243    436.15381    341.86672    541.14284    37426.586 
   73200    307.85996   -1423.1308    438.55325    404.77799    420.78143    37426.586 
   73300    297.67453   -1414.0425    448.43564    377.78233   -195.45478    37426.586 
   73400    296.03117   -1443.7771    466.24376    358.43952   -265.56013    37426.586 
   73500    304.07572   -1435.9709    435.87313    372.17968    -833.1084    37426.586 
   73600    303.20558   -1426.4773    437.63159     379.5048   -347.54095    37426.586 
   73700    296.21375   -1443.2669    438.34715    331.87703   -373.31235    37426.586 
   73800    310.77986   -1429.3471    457.75364    430.93937   -284.71458    37426.586 
   73900    292.92896   -1431.1383     464.5988    355.43317   -154.11136    37426.586 
   74000    307.23246   -1443.2265    439.01392    382.31102    157.60862    37426.586 
   74100    301.24575   -1415.1853     421.3687    365.68929    47.862524    37426.586 
   74200    312.09199   -1465.9921    444.60721    387.06955     -357.337    37426.586 
   74300    293.50437   -1488.3577    429.31519    265.52703   -573.19089    37426.586 
   74400    299.90982   -1433.8517    451.04543    370.67062    327.20037    37426.586 
   74500     309.0011   -1454.9043    463.41162    403.01269    217.63932    37426.586 
   74600    289.71489   -1420.8555    458.54656    345.15879    553.24533    37426.586 
   74700    290.59301    -1448.146    466.75124     330.0359    420.85046    37426.586 
   74800    296.31252   -1428.8554    452.00577    360.39288    932.80535    37426.586 
   74900    308.06267   -1479.6212     436.0106     346.6597    779.54939    37426.586 
   75000    299.31312   -1447.3324     458.2838    361.73551    747.24157    37426.586 
   75100    297.19997   -1453.0913    445.60122    333.75744    412.14593    37426.586 
   75200    297.01839   -1426.3212    451.40579    365.51263    348.74049    37426.586 
   75300    298.14309   -1384.0733    480.33986    441.77035    180.19039    37426.586 
   75400    307.27019   -1405.1595    467.94408    449.47849    30.365097    37426.586 
   75500    303.71065   -1427.1344    453.97598    397.47144   -39.808437    37426.586 
   75600    290.32635   -1434.7993    484.83519    360.26313   -45.182974    37426.586 
   75700    293.38689   -1392.4273    455.85053    387.46248    262.42292    37426.586 
   75800     309.0668   -1416.5873    458.12342      436.338    159.21288    37426.586 
   75900    310.08217   -1403.4744    457.53968    453.44954    421.60751    37426.586 
   76000    301.91881   -1420.2913     479.4879    421.74002   -1.2168062    37426.586 
   76100    296.34169   -1434.7643    458.06087    360.67077   -95.328306    37426.586 
   76200    306.38194   -1415.6564    452.94448     419.9734   -554.94299    37426.586 
   76300    297.03036   -1415.9168    449.13434    373.69965   -53.013926    37426.586 
   76400    299.92049   -1428.8098    451.73561    376.45089   -344.28208    37426.586 
   76500    303.67731   -1432.8972     433.6573    371.23949    84.052968    37426.586 
   76600    307.79882   -1426.6472    435.19558    397.62796    -626.0359    37426.586 
   76700    300.61539   -1415.6133    454.38918      395.437    537.48301    37426.586 
   76800    302.99207   -1421.6332     445.2764    391.03019    668.63317    37426.586 
   76900    298.61661   -1410.9886    453.54113    390.19331    19.654272    37426.586 
   77000     307.2182   -1409.0155    427.60752    405.05135    569.83056    37426.586 
   77100    309.90919   -1430.1311    445.82951    414.30203    280.44799    37426.586 
   77200    298.90416    -1431.957    458.25674    375.23817    215.36813    37426.586 
   77300    304.37355   -1400.2343    472.36423    445.75145    792.53909    37426.586 
   77400    304.35903     -1400.77    456.19098    428.97696     970.0309    37426.586 
   77500    302.73182   -1449.1957    448.74072    365.75755    591.81982    37426.586 
   77600     310.0833   -1453.3889    435.39273    381.39316    225.95893    37426.586 
   77700    294.87329   -1444.2572    449.71435    336.20444    125.64962    37426.586 
   77800    302.34087    -1452.996    460.26483    371.71696   -445.38337    37426.586 
   77900    285.04867   -1442.6761    454.05803    297.79125   -143.11804    37426.586 
   78000    299.58873   -1439.0754    468.50112    381.45358    -180.7076    37426.586 
   78100    296.31012   -1447.2592     453.7752    343.74763   -179.28096    37426.586 
   78200    293.78396   -1420.3473    434.07448    339.55851    70.824513    37426.586 
   78300    295.97997   -1427.0378    471.16205    379.86602    360.03083    37426.586 
   78400    303.70864    -1428.851    444.00759    385.77742   -112.81436    37426.586 
   78500    313.12283   -1428.5892    461.15954    445.67691    109.36194    37426.586 
   78600    297.73764   -1420.0328     465.3254    388.96662    81.983878    37426.586 
   78700    310.63999   -1424.9922    450.76516    427.67462    69.556996    37426.586 
   78800    291.17593   -1427.2445    453.01879    339.83566    289.80552    37426.586 
   78900    300.57881   -1472.0426    462.85776    347.31126   -22.078879    37426.586 
   79000    299.75884   -1457.9248    477.83758    372.70829    494.16728    37426.586 
   79100    295.10395   -1433.3758    444.80298    343.21544    530.58879    37426.586 
   79200     297.4514   -1462.4734    480.78625    360.69513    151.92633    37426.586 
   79300    309.32859   -1430.7944    463.53511    428.72411    473.02943    37426.586 
   79400    292.54034   -1441.9513     462.2073    340.47495    548.82941    37426.586 
   79500    296.90229   -1423.8802    477.89327    393.91727    364.62201    37426.586 
   79600    292.38403   -1435.2713     448.0717    332.31387   -172.71211    37426.586 
   79700     297.1575   -1411.2743    483.48524    413.26686   -81.314131    37426.586 
   79800    295.43833   -1411.5962    458.30342    380.00461   -145.83782    37426.586 
   79900    319.35205   -1428.9133    467.46317    479.76854   -52.949628    37426.586 
   80000    306.02814   -1439.3957    467.67618    409.36911    127.81013    37426.586 
   80100    293.13268   -1454.2973    470.65594    339.25073    191.78318    37426.586 
   80200    294.37754   -1438.6956    471.00711    360.82158   -97.015373    37426.586 
   80300    293.19086   -1441.2235    467.83951    349.77065   -106.14546    37426.586 
   80400    295.05878   -1435.4085    484.26449    380.44042    52.131391    37426.586 
   80500    296.58475    -1423.699    481.79074    396.56279   -224.78837    37426.586 
   80600    305.93828   -1416.1477    469.79201    434.32734    612.96741    37426.586 
   80700    297.75004   -1423.8629    474.20839     394.0755    330.97319    37426.586 
   80800    289.29588   -1457.1153    458.92658    307.38806    77.319596    37426.586 
   80900    309.95561    -1450.817    463.54416    411.54023    648.88761    37426.586 
   81000    314.98155   -1450.6599    474.72972    445.56467    134.81741    37426.586 
   81100    298.75044   -1414.0016    461.78007    396.02324    171.94861    37426.586 
   81200    299.48025   -1422.0243    471.32901    400.84303   -46.726207    37426.586 
   81300    302.22882   -1463.5014    465.80718    366.24823    323.40247    37426.586 
   81400    294.89566   -1453.0247    446.48565    324.30923    334.97461    37426.586 
   81500    306.46127   -1422.2369    441.21884    402.02522    269.73926    37426.586 
   81600    296.27779   -1476.1209    445.79128    306.75614    83.185701    37426.586 
   81700    292.42409   -1431.4995    472.25952    360.45429    305.54997    37426.586 
   81800     301.7072   -1462.1082    478.08238    377.56258    343.55144    37426.586 
   81900    296.44151   -1405.4129    470.63149    403.04324   -58.790368    37426.586 
   82000    300.01902    -1442.623    469.75464    381.10141    343.50737    37426.586 
   82100     292.7211   -1432.4863    467.65709     356.2054    -189.8525    37426.586 
   82200    302.42265   -1390.2919    480.28719    454.81251   -173.42377    37426.586 
   82300    304.81353   -1403.1696    474.66508    447.10266   -317.61383    37426.586 
   82400    304.68764   -1408.8924    494.43678    460.58337   -1015.6816    37426.586 
   82500    302.84199   -1471.0382    434.48282    330.15427    -513.1413    37426.586 
   82600     297.0947   -1422.5753    458.43391    376.63111   -245.19614    37426.586 
   82700    305.28964   -1452.2208    458.88298      384.418    -616.8891    37426.586 
   82800    287.29522   -1418.0621    486.64961    365.13545     -474.399    37426.586 
   82900    300.24995    -1453.713     473.5631    374.86204    -557.3373    37426.586 
   83000    295.00871   -1429.5677    450.87775    352.66856   -37.485462    37426.586 
   83100    288.24218   -1418.5944    464.78915    347.01622   -48.896961    37426.586 
   83200     298.8446   -1411.8791    456.71261    393.50317   -46.993368    37426.586 
   83300    289.11192   -1421.7544    464.50577    347.49797   -496.54906    37426.586 
   83400    300.28051   -1408.0362    457.71183    404.82545    110.05431    37426.586 
   83500    302.03781   -1408.4016    484.43503    439.11384   -42.615302    37426.586 
   83600    297.19748   -1443.8184     481.9355    379.35344    153.10958    37426.586 
   83700    296.25935    -1441.501    470.33401    365.83557    271.51892    37426.586 
   83800    312.43884    -1409.613    458.48786    458.89465   -45.365508    37426.586 
   83900    296.55538   -1444.2136    445.74057    339.86545   -351.10713    37426.586 
   84000     287.7453   -1441.7669    459.29406    316.10625   -657.20052    37426.586 
   84100    297.31148   -1417.8971    480.94273    404.79642   -427.07394    37426.586 
   84200    288.55882   -1454.5952    464.60853    312.26386   -736.26753    37426.586 
   84300     290.7109   -1455.6491    465.35071    321.66428   -327.17904    37426.586 
   84400    297.28233   -1462.8353    461.48383     340.2678   -370.06613    37426.586 
   84500    308.06334   -1487.8627    453.63066    356.04136    188.70893    37426.586 
   84600    305.44333    -1466.524    465.31736     377.2427    122.93139    37426.586 
   84700    308.59799   -1476.6511    437.06481    353.09991    -88.66959    37426.586 
   84800    288.98999   -1464.7564     459.0812    298.52112   -233.14235    37426.586 
   84900    303.98865   -1458.9557    479.89548    392.82428    62.229068    37426.586 
   85000    309.11001   -1445.8101    469.13458    418.32141   -77.413629    37426.586 
   85100    298.90555   -1460.1716    469.66316    358.43628   -222.01583    37426.586 
   85200    296.64029   -1486.2635     467.5501    320.00839    477.69251    37426.586 
   85300     296.3082    -1462.583    445.34777     319.9878   -237.87213    37426.586 
   85400     293.5559   -1483.9391    446.35131    287.21432   -332.63719    37426.586 
   85500    305.22208   -1508.9052    464.94165     333.4873   -413.52059    37426.586 
   85600    313.74228    -1490.279    460.80125    386.42432    26.826528    37426.586 
   85700    302.86834   -1492.0065    462.13071     336.9528   -51.778046    37426.586 
   85800    292.21697   -1479.2074    472.38097    311.93312   -645.57932    37426.586 
   85900    298.08665   -1459.7251     456.2314    341.75542   -261.20302    37426.586 
   86000    295.73471    -1458.613    457.92745    333.94933   -13.491782    37426.586 
   86100     300.4927   -1455.7029    457.41523    357.81982    259.31156    37426.586 
   86200    301.96666   -1450.4727    472.52709    384.81374    925.20572    37426.586 
   86300     296.0487   -1475.8491    472.17846    332.38126    653.18882    37426.586 
   86400    296.05699   -1454.3891     469.8344    351.53458    927.62258    37426.586 
   86500    301.15827   -1435.0177    459.49061    383.58407    63.554885    37426.586 
   86600    308.02031   -1452.8293    456.10711    393.35696    154.00612    37426.586 
   86700    305.71736   -1423.6266    452.48767    408.54714    198.47595    37426.586 
   86800    293.49953   -1466.8962    458.43182     316.0833   -71.427453    37426.586 
   86900    307.07459   -1490.4433    453.43391    348.80174     -235.929    37426.586 
   87000    297.40893    -1477.963     466.5001     330.7277    74.244506    37426.586 
   87100    298.02889   -1454.9448    474.11279    364.15643   -117.95086    37426.586 
   87200     311.0027   -1465.9066    479.71321    417.34513   -147.74764    37426.586 
   87300     296.9384   -1411.8007    478.40609    406.67252   -501.16587    37426.586 
   87400    303.20007   -1414.5783    476.46861    430.21598    29.515895    37426.586 
   87500     302.5582   -1389.5268    476.26763    452.16975    691.41222    37426.586 
   87600    308.33749   -1413.9853    491.85166    469.37696    558.48277    37426.586 
[...]
  985000    299.33611   -1518.0065    488.85982    321.74114    259.01016    37426.586 
  985100    306.87517   -1508.0929    468.45463     345.2729    183.91774    37426.586 
  985200    296.32301   -1499.4284    476.87761    314.73908   -94.897516    37426.586 
  985300    292.45354   -1518.7657    493.20909    294.27055    360.59902    37426.586 
  985400    294.46994   -1501.0775    507.67368    335.52324    1213.7852    37426.586 
  985500    296.31211   -1489.6158    492.58606     340.2109    545.09275    37426.586 
  985600    304.30702   -1474.1805    498.55039    397.69117    463.78221    37426.586 
  985700    305.85274   -1478.1808    454.22859    356.34482    279.74877    37426.586 
  985800    294.29589   -1449.5156    501.89659    380.52253   -297.50313    37426.586 
  985900    293.59944   -1450.0388    496.33163    371.29135    -623.0297    37426.586 
  986000     296.5269   -1491.2878    480.42774    327.34997   -357.65038    37426.586 
  986100    294.19886   -1463.6375    517.52737     381.5936   -226.93772    37426.586 
  986200    289.49346   -1481.1464     483.8275     309.1496    194.32889    37426.586 
  986300    299.87548   -1455.3439    492.30386    390.28194   -149.68908    37426.586 
  986400    300.73642   -1468.6162    502.33806    390.92919    18.340393    37426.586 
  986500     306.1903   -1419.5024    516.20299    478.52107   -75.515845    37426.586 
  986600    290.94211   -1477.5624    501.21626    336.66003   -609.60506    37426.586 
  986700      302.688   -1478.8759     496.7062    383.84499   -54.191424    37426.586 
  986800    306.93668   -1466.6281    514.63791     433.1986    457.78337    37426.586 
  986900    293.60434   -1447.7449    495.59485    372.87062    34.746932    37426.586 
  987000    298.17752   -1449.9085    509.73747    405.48816   -545.65689    37426.586 
  987100     295.3657   -1480.7183    508.34494    360.59623   -137.49426    37426.586 
  987200    298.54595   -1446.5942    504.72793    405.45556    63.852701    37426.586 
  987300     309.5429   -1478.6269    486.40423    404.72787   -43.407826    37426.586 
  987400    302.03999   -1453.1205    511.04171    421.01152   -468.64782    37426.586 
  987500    300.37081   -1453.6122    508.40982    410.35495   -27.756327    37426.586 
  987600    298.46006    -1494.041    486.39136    339.28462   -165.64896    37426.586 
  987700    304.49487   -1482.4844    500.25969    391.94427    347.26785    37426.586 
  987800    299.91919   -1480.1034    509.48152    382.89733    372.68877    37426.586 
  987900    295.05702   -1466.3659     522.9237    388.13431   -191.69459    37426.586 
  988000    297.67756    -1458.752     459.6903     344.3412   -238.99035    37426.586 
  988100    306.53656   -1491.8425     506.8997    398.44026    -348.5079    37426.586 
  988200    302.25873   -1477.3662    488.60844    375.31974    77.834111    37426.586 
  988300     297.7812   -1508.3091    480.04556    315.60709   -342.48766    37426.586 
  988400    290.60165   -1497.0491    515.31466    329.73526    192.86394    37426.586 
  988500    303.33702   -1447.5232    525.02414    446.44462    122.75529    37426.586 
  988600    294.90795   -1469.1204    506.36026    368.14368   -6.9880787    37426.586 
  988700    302.05605   -1479.1603    512.96896    396.97145   -412.23187    37426.586 
  988800    303.75875   -1462.9824    497.83352    405.69807    -584.9004    37426.586 
  988900     299.3752   -1421.8553    481.97192     411.1809   -462.27587    37426.586 
  989000    298.90628   -1426.5454    490.24168     412.6443    -283.2535    37426.586 
  989100    306.89173   -1454.9755    504.86283    434.87327    37.717038    37426.586 
  989200    296.51386   -1444.7414    503.18068    396.59048    46.201884    37426.586 
  989300    294.07161   -1459.0961    499.61485    367.64817   -225.84378    37426.586 
  989400    296.54082   -1463.8654    492.11236    366.51983   -492.29768    37426.586 
  989500    288.96748   -1453.1762    520.97583    371.89444    307.39525    37426.586 
  989600    291.98287   -1454.9075     529.2156    392.01114    437.84506    37426.586 
  989700    298.61836   -1465.2541    505.96915    388.36374    950.23478    37426.586 
  989800     304.4787   -1480.2809      488.664    382.47915    1053.0598    37426.586 
  989900    297.81292   -1458.9445    503.49874    388.56797     919.4136    37426.586 
  990000    306.29223   -1466.1059    499.72331     415.8978    62.136259    37426.586 
  990100    302.64292   -1480.4085    526.80556    412.20833    37.404411    37426.586 
  990200     297.1511    -1483.529    475.73919    333.23719   -406.38423    37426.586 
  990300    300.03056   -1476.3472    507.62785    385.30244   -532.47474    37426.586 
  990400    289.97242   -1504.8544    506.11859    309.89414   -97.767198    37426.586 
  990500    300.52067   -1481.3703    488.60032    363.46374    -247.0576    37426.586 
  990600    297.36549   -1489.9271    499.59805    351.66545    -219.9624    37426.586 
  990700    304.31484   -1488.2381    516.05803    401.17649   -854.39219    37426.586 
  990800    308.35723   -1516.5097    495.80831    370.89825    -808.6996    37426.586 
  990900    290.35886   -1504.6024    502.04769    307.81928    -290.9402    37426.586 
  991000     287.7142   -1494.1406    504.97596     309.2741   -877.75025    37426.586 
  991100    296.24771   -1490.0599    491.55951    338.44965   -1461.3553    37426.586 
  991200      290.636   -1521.1286    491.49617    281.99223   -1855.3025    37426.586 
  991300    288.85102   -1505.1751    473.60781    272.00185   -1556.5544    37426.586 
  991400    310.96519   -1508.8304    475.98336    370.52214   -1320.0016    37426.586 
  991500    297.60045   -1554.3305    514.57654    303.30091   -525.83116    37426.586 
  991600    298.88588   -1577.9658    494.57587    265.46601   -474.79995    37426.586 
  991700    297.16723   -1566.8608     490.2928    264.53181   -153.55653    37426.586 
  991800    302.66998   -1561.7901     462.3214    266.46471    301.30857    37426.586 
  991900    303.35092     -1574.47    501.79941    296.33591   -459.35167    37426.586 
  992000    307.00012   -1552.0159     498.6531     332.1123    -244.3229    37426.586 
  992100    298.99913   -1520.3944     487.8247    316.79736    -433.8389    37426.586 
  992200    301.88254   -1515.0485    486.82702    334.15826   -723.29455    37426.586 
  992300    298.32942    -1530.864       507.78    323.26064   -516.17761    37426.586 
  992400    289.67623   -1525.2654    509.67409    291.70198   -361.44542    37426.586 
  992500    304.88748   -1515.4937    483.80405    344.25117    20.331612    37426.586 
  992600      289.299   -1549.8997    489.03356     244.7248   -451.72337    37426.586 
  992700    294.22474   -1506.2284    499.05274    320.64489     333.8298    37426.586 
  992800    296.33222   -1553.8112    500.38295    283.90315    470.00895    37426.586 
  992900     309.7363   -1517.4539    483.31678    363.68617    157.03255    37426.586 
  993000    302.03765   -1527.9199    501.67707     336.8369   -2.1042047    37426.586 
  993100    288.40115   -1556.5241    485.46169    230.47647   -580.85694    37426.586 
  993200    307.70817   -1516.5893    487.90947    359.99064    172.30121    37426.586 
  993300    296.91846   -1575.3636    479.91984    244.53332   -93.571686    37426.586 
  993400    300.55263   -1574.6933    472.11873    253.80334   -358.45334    37426.586 
  993500    304.01015   -1550.9979    469.94909    290.93273    231.28108    37426.586 
  993600    294.15951   -1569.2675    485.00281    243.26139    523.37179    37426.586 
  993700    296.36897   -1572.0991     479.1361    244.53425    377.12983    37426.586 
  993800    304.90388   -1561.8831    517.24138    331.37315    104.27829    37426.586 
  993900    291.84593   -1539.6406    499.07768    276.52215   -444.24495    37426.586 
  994000    297.57709   -1552.7869    496.87255    287.03516   -498.78034    37426.586 
  994100    297.45592   -1551.1818    477.21355    268.43438   -747.72605    37426.586 
  994200    311.67738   -1561.4758     503.4338    348.54131   -246.90232    37426.586 
  994300    297.47601   -1556.1038    487.80066     274.1902   -415.61346    37426.586 
  994400    301.26761   -1549.4627    491.72816    301.87001   -610.00492    37426.586 
  994500    299.47167   -1525.4861     496.5568    322.57032   -323.70832    37426.586 
  994600    309.81134   -1493.4778    498.76166    403.44583   -160.90888    37426.586 
  994700     311.6361   -1495.9895    515.75163    426.15914     181.0749    37426.586 
  994800     288.7714   -1486.8412    522.46314    338.83177   -74.762446    37426.586 
  994900    296.85826   -1493.4925    524.63002    370.84298    417.84136    37426.586 
  995000    297.37066   -1543.9293    493.46933    291.55787    56.992747    37426.586 
  995100    291.91843   -1484.6827    501.39255    334.12206   -135.86855    37426.586 
  995200    300.56825   -1485.5578    499.06935    369.95996    -149.2669    37426.586 
  995300    309.24342   -1539.9448    506.42124    362.07542    121.90678    37426.586 
  995400    297.31355   -1517.8759     495.9189     319.8031   -84.572583    37426.586 
  995500    291.74739   -1521.8364    488.61553    283.41946    375.55519    37426.586 
  995600    298.23209   -1503.4332    502.19285    344.66508    3.1501746    37426.586 
  995700     302.1333    -1494.752    496.67559    365.43498   -292.63794    37426.586 
  995800    304.48496   -1522.7024    520.69244    372.11438   -696.82692    37426.586 
  995900    293.22837   -1511.8478    521.56613    333.04221   -278.80574    37426.586 
  996000    299.96954   -1481.7435    503.38576    375.38868    70.985675    37426.586 
  996100     298.2791   -1512.3115    487.26434    321.07048    191.84804    37426.586 
  996200    302.86695   -1487.0209    534.59479    414.39624    102.47185    37426.586 
  996300    304.04049   -1508.6813    481.16247    344.59963   -170.71911    37426.586 
  996400    257.81387   -1509.3959    519.85799    173.96224    13.539376    37426.586 
  996500    297.39172   -1543.6325    521.72454    320.20491    254.19732    37426.586 
  996600    291.96875   -1527.3378    517.58369    307.88525    48.464237    37426.586 
  996700    292.57839   -1535.0868     523.7941    309.09795    437.12853    37426.586 
  996800    312.78261   -1550.2143     500.5913    361.94817    888.64289    37426.586 
  996900    301.23807   -1540.1574    498.80744    318.12136    613.84897    37426.586 
  997000    304.96881   -1547.7245    498.18728    326.77069    293.29596    37426.586 
  997100     296.5672    -1552.152    499.49226    285.73212    63.601528    37426.586 
  997200    299.03904   -1532.6746    499.16209    316.03467    345.18482    37426.586 
  997300    293.51517   -1555.9929     469.5227    238.14801     432.7412    37426.586 
  997400     300.2282   -1546.8508    516.37092    324.43392    495.51351    37426.586 
  997500    290.18055    -1512.663    494.90562    291.81193    212.68584    37426.586 
  997600    294.77712   -1545.6547    509.46991    294.12858    1071.6718    37426.586 
  997700    308.17731   -1554.9896    493.33461    329.13265    1146.7446    37426.586 
  997800    296.86488   -1541.1975     519.1794    317.71717    675.79068    37426.586 
  997900    289.11063   -1535.5867    512.20334    281.35739    1195.2621    37426.586 
  998000    301.03114   -1505.2154    513.95591    367.27793    264.57702    37426.586 
  998100    301.83633   -1539.0196    527.27031    350.42191    -159.8107    37426.586 
  998200    296.55195   -1571.2447    474.26711    241.34547   -96.717271    37426.586 
  998300    290.50153   -1544.0774     497.0944    264.03486   -335.41599    37426.586 
  998400    302.68695   -1539.1301    511.56209      338.442     240.0992    37426.586 
  998500     298.7403    -1540.481    513.14753    320.86546   -144.16204    37426.586 
  998600     302.2373   -1520.0286    498.93394    342.88603    9.3051554    37426.586 
  998700    298.45453    -1543.046    479.45092    283.31425   -607.73501    37426.586 
  998800     297.8617   -1537.4145    497.52028    304.33965   -602.71631    37426.586 
  998900    309.20828   -1519.4089    488.13982    364.17126   -82.511114    37426.586 
  999000    294.54511   -1471.6412    494.41989    352.04499   -446.24868    37426.586 
  999100    319.40104   -1534.6491    504.47133    411.26199    -543.3939    37426.586 
  999200    294.11535   -1528.9656    506.19771    304.55898   -14.233539    37426.586 
  999300     297.6965   -1497.8604    505.37916    351.00715    150.82119    37426.586 
  999400    294.17977   -1520.6245    493.22992    300.22291   -215.87136    37426.586 
  999500    298.42501   -1511.3324    538.53493    373.97861    155.58544    37426.586 
  999600    297.33495   -1563.0299    484.20425    263.03111    72.294416    37426.586 
  999700    297.65184   -1572.4704    489.40965    260.22606   -287.07952    37426.586 
  999800    298.98981   -1499.7638    509.32517     358.8864   -403.94382    37426.586 
  999900    306.64533   -1529.2408    485.54985    340.18299     74.31986    37426.586 
 1000000    308.40599   -1528.7023    529.55289    392.67026    83.222645    37426.586 
 1000100    294.53629   -1523.2418    492.81097    298.79566   -374.45408    37426.586 
 1000200    302.59501   -1544.6088    495.77469     316.7609    -269.0453    37426.586 
 1000300    294.44286   -1529.3696    492.59831    292.03353    229.28459    37426.586 
 1000400    293.52483   -1529.1639     488.6842    284.18211   -293.02468    37426.586 
 1000500    296.89306   -1516.0065    512.33322    336.18914   -232.36543    37426.586 
 1000600    290.90211   -1485.6606    519.12101    346.28607   -523.35236    37426.586 
 1000700     296.0658   -1545.6402    496.59237    287.08123   0.47615051    37426.586 
 1000800    291.32083   -1480.4653    530.43745    364.68744    220.66306    37426.586 
 1000900    297.12978   -1502.8264    468.79283    306.89723   -432.28313    37426.586 
 1001000    303.74028   -1543.1627    494.91413    322.51508    28.802308    37426.586 
 1001100    309.21501   -1565.2243    502.74729    332.99378    87.519563    37426.586 
 1001200    306.41452   -1564.1157    475.31264     294.0292   -60.503531    37426.586 
 1001300     295.6651   -1478.9969    525.06516    380.38898    90.692424    37426.586 
 1001400    309.49218   -1491.8459    495.23765    400.11336   -680.18781    37426.586 
 1001500    295.20401   -1528.1041    464.70546    268.84128    193.05166    37426.586 
 1001600    300.13772   -1564.4393    511.51101    301.57715   -535.04168    37426.586 
 1001700    304.11849   -1531.9378    487.60897    328.14166   -262.22428    37426.586 
 1001800    297.38596   -1532.0412    490.58666    300.63235   -682.40193    37426.586 
 1001900    298.52518   -1517.0716    498.97886    329.13535   -412.97391    37426.586 
 1002000    296.38286   -1497.5007    491.65751    331.71675    102.12238    37426.586 
 1002100    296.53646   -1496.3772    511.18264     353.0586    245.10505    37426.586 
 1002200    286.42511   -1493.0358    518.19113    317.77647    217.04447    37426.586 
 1002300    297.43543   -1495.9813    484.04993    330.37884   -82.837984    37426.586 
 1002400    307.13595   -1526.8069    491.07309     350.3543   -375.20944    37426.586 
 1002500    290.04132   -1484.8447     524.0675    348.16373   -620.20093    37426.586 
 1002600    297.08197   -1509.8418    495.21712    326.09029     -968.486    37426.586 
 1002700    309.47078   -1484.3658    491.02122    403.28042   -204.67283    37426.586 
 1002800    305.70844   -1486.7316    522.11252    415.02676    298.40604    37426.586 
 1002900    298.86724   -1501.4435    514.46257    361.79089    109.99352    37426.586 
 1003000    298.64586   -1471.6433    505.60705    381.73654    354.46213    37426.586 
 1003100    303.02558   -1476.9561    492.12592    382.70799    379.37913    37426.586 
 1003200    302.09231   -1512.2605    499.21741    350.28329    344.91364    37426.586 
 1003300    289.81342   -1485.0311    491.72929     314.6106    173.88945    37426.586 
 1003400      294.829   -1476.9878    505.56508    359.12476    108.90079    37426.586 
 1003500    304.99518     -1474.03    519.27139    421.66832   -600.06601    37426.586 
 1003600    305.97223   -1477.0061    509.40902    413.23915   -971.81246    37426.586 
 1003700    298.15941   -1450.8801    503.86915     398.5665   -999.68287    37426.586 
 1003800    298.40017   -1450.8988    484.55238    380.31759   -692.15709    37426.586 
 1003900    293.28623   -1444.9469    501.38517    380.02331   -274.79038    37426.586 
 1004000     306.6444    -1508.089    508.03728      383.818   -47.122632    37426.586 
 1004100    301.05724    -1505.619    502.87046    355.90671    113.84243    37426.586 
 1004200    306.66128   -1517.7478    493.66376    359.86183    260.85027    37426.586 
 1004300    304.69452   -1515.1253    483.81278    343.75754    525.22357    37426.586 
 1004400    296.58666   -1507.3055    470.37063    301.54489   -232.91065    37426.586 
 1004500    306.48276   -1502.4893    520.08259    400.73362   -46.361522    37426.586 
 1004600    296.55514   -1539.1371    470.21332    269.41364   -246.30632    37426.586 
 1004700    303.99514   -1534.9037    513.73358    350.74363    386.55451    37426.586 
 1004800    299.27028   -1568.6153    499.62425    281.59969    285.87271    37426.586 
 1004900    304.85167   -1498.9907    505.97324    382.76177    651.18184    37426.586 
 1005000    301.22681   -1532.6185    471.28247    298.08445    456.48309    37426.586 
 1005100    305.82753   -1502.6397    516.46742    394.01097     531.6513    37426.586 
 1005200    285.26286   -1500.8267    472.50539    259.05469    145.35511    37426.586 
 1005300     303.4581   -1510.5479    522.40134    381.34363    323.38331    37426.586 
 1005400    302.63225   -1496.7312    482.84704    351.87894    453.87486    37426.586 
 1005500    302.63403   -1519.5778    482.42985    328.62314    486.07504    37426.586 
 1005600    300.84397   -1513.4566    515.42755    359.66364   -159.87694    37426.586 
 1005653    299.67575   -1506.2741    510.91177    357.05822   -352.67622    37426.586 
Loop time of 599.324 on 32 procs for 1000000 steps with 1515 atoms

Performance: 144.162 ns/day, 0.166 hours/ns, 1668.547 timesteps/s
100.0% CPU use with 32 MPI tasks x no OpenMP threads

MPI task timing breakdown:
Section |  min time  |  avg time  |  max time  |%varavg| %total
---------------------------------------------------------------
Pair    | 255.07     | 275.3      | 313.34     |  82.6 | 45.94
Bond    | 1.4492     | 1.5741     | 1.86       |   6.6 |  0.26
Neigh   | 38.81      | 38.895     | 38.97      |   1.0 |  6.49
Comm    | 232.86     | 270.93     | 291.35     |  83.4 | 45.21
Output  | 0.38513    | 0.40229    | 0.82045    |  11.8 |  0.07
Modify  | 9.0197     | 9.1326     | 9.313      |   2.5 |  1.52
Other   |            | 3.088      |            |       |  0.52

Nlocal:        47.3438 ave          72 max          16 min
Histogram: 2 1 3 2 3 6 5 4 3 3
Nghost:        2004.44 ave        2146 max        1872 min
Histogram: 3 5 5 3 0 0 4 7 4 1
Neighs:        5386.16 ave        9957 max        1745 min
Histogram: 3 4 2 7 4 5 1 2 1 3

Total # of neighbors = 172357
Ave neighs/atom = 113.76700
Ave special neighs/atom = 2.0303630
Neighbor list builds = 49745
Dangerous builds = 0

# Output the system volume
variable v equal vol
print 'The system volume is $v'
The system volume is 37426.5860013271

# Outputs
variable A equal xhi-xlo
variable B equal yhi-ylo
variable C equal zhi-zlo
variable D equal xy
variable E equal xz
variable F equal yz
print 'Lattice vectors'
Lattice vectors
print '$A 0 0'
33.4497906793875 0 0
print '$D $B 0'
0 33.4497906793875 0
print '$E $F $C'
0 0 33.4497906793875
Total wall time: 0:10:04
