LAMMPS data file
 1506 atoms
 1005 bonds
 507 angles
 3 dihedrals
 0 impropers
 4 atom types
 3 bond types
 2 angle types
 1 dihedral types
 1 improper types
 0 15 xlo xhi
 0 15 ylo yhi
 0 15 zlo zhi
 0 0 0 xy xz yz

# Atom types
#
# 1 O_3
# 2 C_3
# 3 H_
# 4 H__HB

# Bond Coeffs
#
# 1 O_3*C_3
# 2 C_3*H_
# 3 O_3*H__HB

# Angle Coeffs
#
# 1 O_3
# 2 C_3

# Dihedral Coeffs
#
# 1 A1

# Inversion Coeffs
#
# 1 1

 Masses

 1 16
 2 12.01
 3 1.01
 4 1.01

 Atoms # full

1 1 1 0 6.81961399251921 12.232215501689 5.23142870602761
2 1 2 0 6.77623058116701 12.6841534754004 6.58904361370101
3 1 3 0 6.14283952712559 13.5694825795334 6.64453568552511
4 1 3 0 6.35621321534707 11.9099838195225 7.23317230917073
5 1 3 0 7.77788131450221 12.9457776509127 6.93379766979977
6 1 4 0 7.48507799502996 11.1653239845527 4.70056326919351
7 2 4 0 4.88026463354006 14.2467031678557 6.92015274195001
8 2 1 0 5.84026463354006 14.2467031678557 6.92015274195001
9 2 4 0 6.08026463354006 13.3167031678557 6.92015274195001
10 3 4 0 10.5015817335527 14.3208525252435 9.17107728193514
11 3 1 0 11.4615817335527 14.3208525252435 9.17107728193514
12 3 4 0 11.7015817335527 13.3908525252435 9.17107728193514
13 4 4 0 3.65836210476235 7.25990950403735 5.08136850781739
14 4 1 0 4.61836210476235 7.25990950403735 5.08136850781739
15 4 4 0 4.85836210476235 6.32990950403735 5.08136850781739
16 5 4 0 -0.361866552410647 1.49460468365811 8.03579819505103
17 5 1 0 0.598133447589353 1.49460468365811 8.03579819505103
18 5 4 0 0.838133447589353 0.564604683658108 8.03579819505103
19 6 4 0 13.6907007875573 10.5424024843983 13.1014104292262
20 6 1 0 14.6507007875573 10.5424024843983 13.1014104292262
21 6 4 0 14.8907007875573 9.61240248439834 13.1014104292262
22 7 4 0 2.12983809571713 11.2881328728423 11.4552962395828
23 7 1 0 3.08983809571713 11.2881328728423 11.4552962395828
24 7 4 0 3.32983809571713 10.3581328728423 11.4552962395828
25 8 4 0 5.41929704879411 5.98668343661353 11.7821071995422
26 8 1 0 6.37929704879411 5.98668343661353 11.7821071995422
27 8 4 0 6.61929704879411 5.05668343661353 11.7821071995422
28 9 4 0 5.74548995166086 5.3954323792737 6.70612247893587
29 9 1 0 6.70548995166086 5.3954323792737 6.70612247893587
30 9 4 0 6.94548995166086 4.4654323792737 6.70612247893587
31 10 4 0 10.7300955236144 9.44651877897792 1.40241823741235
32 10 1 0 11.6900955236144 9.44651877897792 1.40241823741235
33 10 4 0 11.9300955236144 8.51651877897792 1.40241823741235
34 11 4 0 8.61152353973128 3.9321488926094 14.4625142798759
35 11 1 0 9.57152353973128 3.9321488926094 14.4625142798759
36 11 4 0 9.81152353973128 3.0021488926094 14.4625142798759
37 12 4 0 14.2522305592149 1.93764196982607 3.55567879043519
38 12 1 0 15.2122305592149 1.93764196982607 3.55567879043519
39 12 4 0 15.452230559215 1.00764196982607 3.55567879043519
40 13 4 0 3.05815456129611 14.9487065155432 14.0305588091724
41 13 1 0 4.01815456129611 14.9487065155432 14.0305588091724
42 13 4 0 4.25815456129611 14.0187065155432 14.0305588091724
43 14 4 0 4.38701164836064 11.2866988165211 12.2076034639031
44 14 1 0 5.34701164836064 11.2866988165211 12.2076034639031
45 14 4 0 5.58701164836064 10.3566988165211 12.2076034639031
46 15 4 0 5.0100860399846 14.2198018268123 14.2841962573584
47 15 1 0 5.9700860399846 14.2198018268123 14.2841962573584
48 15 4 0 6.2100860399846 13.2898018268123 14.2841962573584
49 16 4 0 5.74233483217657 12.5272699216753 2.88572950987145
50 16 1 0 6.70233483217657 12.5272699216753 2.88572950987145
51 16 4 0 6.94233483217657 11.5972699216753 2.88572950987145
52 17 4 0 5.64828041053377 1.54783442075364 11.7648139153607
53 17 1 0 6.60828041053377 1.54783442075364 11.7648139153607
54 17 4 0 6.84828041053377 0.617834420753643 11.7648139153607
55 18 4 0 11.2821904993337 3.94184585701674 13.7187635921873
56 18 1 0 12.2421904993337 3.94184585701674 13.7187635921873
57 18 4 0 12.4821904993337 3.01184585701674 13.7187635921873
58 19 4 0 10.9942196372151 14.338506395407 4.44756471435539
59 19 1 0 11.9542196372151 14.338506395407 4.44756471435539
60 19 4 0 12.1942196372151 13.408506395407 4.44756471435539
61 20 4 0 9.42382984139956 14.3689472674765 2.28535955655389
62 20 1 0 10.3838298413996 14.3689472674765 2.28535955655389
63 20 4 0 10.6238298413996 13.4389472674765 2.28535955655389
64 21 4 0 8.88755352862179 15.2752851640712 4.9815701704938
65 21 1 0 9.84755352862179 15.2752851640712 4.9815701704938
66 21 4 0 10.0875535286218 14.3452851640712 4.9815701704938
67 22 4 0 1.66003406091593 3.65545399178751 0.599762799683958
68 22 1 0 2.62003406091593 3.65545399178751 0.599762799683958
69 22 4 0 2.86003406091593 2.72545399178751 0.599762799683958
70 23 4 0 10.9551831932925 3.5639395976346 0.654853252926841
71 23 1 0 11.9151831932925 3.5639395976346 0.654853252926841
72 23 4 0 12.1551831932925 2.6339395976346 0.654853252926841
73 24 4 0 5.94993889259174 1.73275236430578 3.31355969770811
74 24 1 0 6.90993889259174 1.73275236430578 3.31355969770811
75 24 4 0 7.14993889259175 0.802752364305779 3.31355969770811
76 25 4 0 0.798693992402405 5.32904578879476 9.26536856568418
77 25 1 0 1.7586939924024 5.32904578879476 9.26536856568418
78 25 4 0 1.9986939924024 4.39904578879476 9.26536856568418
79 26 4 0 12.5800262849964 14.5421602185257 8.46897023264319
80 26 1 0 13.5400262849964 14.5421602185257 8.46897023264319
81 26 4 0 13.7800262849964 13.6121602185257 8.46897023264319
82 27 4 0 7.06775537037291 3.5997004566621 4.97887689387426
83 27 1 0 8.02775537037291 3.5997004566621 4.97887689387426
84 27 4 0 8.26775537037291 2.6697004566621 4.97887689387426
85 28 4 0 2.54767999213189 1.58142053563148 9.20320403762162
86 28 1 0 3.50767999213189 1.58142053563148 9.20320403762162
87 28 4 0 3.74767999213189 0.651420535631478 9.20320403762162
88 29 4 0 -0.692252743318677 4.75686855887994 11.8113074311987
89 29 1 0 0.267747256681323 4.75686855887994 11.8113074311987
90 29 4 0 0.507747256681323 3.82686855887994 11.8113074311987
91 30 4 0 2.1307471724879 8.17396714043804 2.70935906446539
92 30 1 0 3.0907471724879 8.17396714043804 2.70935906446539
93 30 4 0 3.3307471724879 7.24396714043804 2.70935906446539
94 31 4 0 8.2605097784847 7.70680010126904 1.65944146108814
95 31 1 0 9.2205097784847 7.70680010126904 1.65944146108814
96 31 4 0 9.4605097784847 6.77680010126904 1.65944146108814
97 32 4 0 4.53437598349527 1.85448230750859 7.7774696610868
98 32 1 0 5.49437598349527 1.85448230750859 7.7774696610868
99 32 4 0 5.73437598349527 0.924482307508588 7.7774696610868
100 33 4 0 3.85162865088321 7.44682865491137 7.94971025548875
101 33 1 0 4.81162865088321 7.44682865491137 7.94971025548875
102 33 4 0 5.05162865088321 6.51682865491137 7.94971025548875
103 34 4 0 12.4510991542786 6.09598458203487 10.1048594259191
104 34 1 0 13.4110991542786 6.09598458203487 10.1048594259191
105 34 4 0 13.6510991542786 5.16598458203487 10.1048594259191
106 35 4 0 -0.587530352203175 8.31104440422729 0.958702977513894
107 35 1 0 0.372469647796825 8.31104440422729 0.958702977513894
108 35 4 0 0.612469647796825 7.38104440422729 0.958702977513894
109 36 4 0 10.8429864111543 3.02609041374177 5.86796515854076
110 36 1 0 11.8029864111543 3.02609041374177 5.86796515854076
111 36 4 0 12.0429864111543 2.09609041374177 5.86796515854076
112 37 4 0 13.6941044199932 10.1830322101619 0.562141772825271
113 37 1 0 14.6541044199932 10.1830322101619 0.562141772825271
114 37 4 0 14.8941044199932 9.25303221016191 0.562141772825271
115 38 4 0 10.4325851057377 12.3670263173431 0.53633491974324
116 38 1 0 11.3925851057377 12.3670263173431 0.53633491974324
117 38 4 0 11.6325851057377 11.4370263173431 0.53633491974324
118 39 4 0 11.048634323962 7.18942376825958 3.49257845780812
119 39 1 0 12.008634323962 7.18942376825958 3.49257845780812
120 39 4 0 12.248634323962 6.25942376825958 3.49257845780812
121 40 4 0 3.40041541188955 13.9595852272492 12.998390001012
122 40 1 0 4.36041541188955 13.9595852272492 12.998390001012
123 40 4 0 4.60041541188955 13.0295852272492 12.998390001012
124 41 4 0 4.23967542752624 5.88291359989904 13.2532235782128
125 41 1 0 5.19967542752624 5.88291359989904 13.2532235782128
126 41 4 0 5.43967542752624 4.95291359989904 13.2532235782128
127 42 4 0 12.732694164589 1.15518547635525 11.03227394633
128 42 1 0 13.692694164589 1.15518547635525 11.03227394633
129 42 4 0 13.932694164589 0.225185476355255 11.03227394633
130 43 4 0 4.62290626994334 11.2200032551214 13.8037262507714
131 43 1 0 5.58290626994334 11.2200032551214 13.8037262507714
132 43 4 0 5.82290626994334 10.2900032551214 13.8037262507714
133 44 4 0 4.38509899584577 11.8127598140296 8.37320485152304
134 44 1 0 5.34509899584577 11.8127598140296 8.37320485152304
135 44 4 0 5.58509899584577 10.8827598140296 8.37320485152304
136 45 4 0 11.1990163188614 11.6667258056719 7.72730655851774
137 45 1 0 12.1590163188614 11.6667258056719 7.72730655851774
138 45 4 0 12.3990163188614 10.7367258056719 7.72730655851774
139 46 4 0 5.60123315124773 3.73611095053144 5.73247789638117
140 46 1 0 6.56123315124773 3.73611095053144 5.73247789638117
141 46 4 0 6.80123315124773 2.80611095053144 5.73247789638117
142 47 4 0 5.73905621582642 14.3009123477992 11.0409695387352
143 47 1 0 6.69905621582642 14.3009123477992 11.0409695387352
144 47 4 0 6.93905621582642 13.3709123477992 11.0409695387352
145 48 4 0 2.55670317376032 2.77055683935992 4.56205088063143
146 48 1 0 3.51670317376032 2.77055683935992 4.56205088063143
147 48 4 0 3.75670317376033 1.84055683935992 4.56205088063143
148 49 4 0 11.7775618289318 6.25164069392718 3.21623011026531
149 49 1 0 12.7375618289318 6.25164069392718 3.21623011026531
150 49 4 0 12.9775618289318 5.32164069392718 3.21623011026531
151 50 4 0 12.4361049388256 10.8370916060545 12.6937595929485
152 50 1 0 13.3961049388256 10.8370916060545 12.6937595929485
153 50 4 0 13.6361049388256 9.90709160605446 12.6937595929485
154 51 4 0 4.99141494554468 10.8828495679796 13.7247692956589
155 51 1 0 5.95141494554468 10.8828495679796 13.7247692956589
156 51 4 0 6.19141494554468 9.95284956797957 13.7247692956589
157 52 4 0 2.09230413238518 5.82121722208336 14.3509231705684
158 52 1 0 3.05230413238518 5.82121722208336 14.3509231705684
159 52 4 0 3.29230413238518 4.89121722208336 14.3509231705684
160 53 4 0 5.5110468906071 8.97195162991062 11.1938044417184
161 53 1 0 6.4710468906071 8.97195162991062 11.1938044417184
162 53 4 0 6.7110468906071 8.04195162991062 11.1938044417184
163 54 4 0 0.907837523119524 10.5304346074723 7.01679615187459
164 54 1 0 1.86783752311952 10.5304346074723 7.01679615187459
165 54 4 0 2.10783752311952 9.60043460747227 7.01679615187459
166 55 4 0 3.84157732056454 1.89324732095934 1.86785828322172
167 55 1 0 4.80157732056454 1.89324732095934 1.86785828322172
168 55 4 0 5.04157732056454 0.963247320959344 1.86785828322172
169 56 4 0 9.93175723051652 6.63147134747356 9.0414681925904
170 56 1 0 10.8917572305165 6.63147134747356 9.0414681925904
171 56 4 0 11.1317572305165 5.70147134747356 9.0414681925904
172 57 4 0 8.38510054556653 7.06538592739031 8.91563222045079
173 57 1 0 9.34510054556653 7.06538592739031 8.91563222045079
174 57 4 0 9.58510054556653 6.13538592739031 8.91563222045079
175 58 4 0 12.4423749097344 2.492166359853 1.81043935474008
176 58 1 0 13.4023749097344 2.492166359853 1.81043935474008
177 58 4 0 13.6423749097344 1.562166359853 1.81043935474008
178 59 4 0 1.19709752543829 11.3279480584338 1.84517803718336
179 59 1 0 2.15709752543829 11.3279480584338 1.84517803718336
180 59 4 0 2.39709752543829 10.3979480584338 1.84517803718336
181 60 4 0 11.4953306845576 9.79487213812769 10.8593311789446
182 60 1 0 12.4553306845576 9.79487213812769 10.8593311789446
183 60 4 0 12.6953306845576 8.86487213812769 10.8593311789446
184 61 4 0 7.3016506740544 6.62762883509509 4.18771358672529
185 61 1 0 8.2616506740544 6.62762883509509 4.18771358672529
186 61 4 0 8.5016506740544 5.69762883509509 4.18771358672529
187 62 4 0 -0.624508057516068 5.28259032330476 13.1260813772678
188 62 1 0 0.335491942483932 5.28259032330476 13.1260813772678
189 62 4 0 0.575491942483932 4.35259032330476 13.1260813772678
190 63 4 0 1.33503335804679 11.0164788416028 9.40048701362684
191 63 1 0 2.29503335804679 11.0164788416028 9.40048701362684
192 63 4 0 2.53503335804679 10.0864788416028 9.40048701362684
193 64 4 0 9.13640451544896 8.58703878749162 7.7764301514253
194 64 1 0 10.096404515449 8.58703878749162 7.7764301514253
195 64 4 0 10.336404515449 7.65703878749162 7.7764301514253
196 65 4 0 13.0882247937564 2.3851632284373 11.8929710914381
197 65 1 0 14.0482247937564 2.3851632284373 11.8929710914381
198 65 4 0 14.2882247937564 1.4551632284373 11.8929710914381
199 66 4 0 -0.649194085998461 0.459253172567114 14.9712560477201
200 66 1 0 0.310805914001539 0.459253172567114 14.9712560477201
201 66 4 0 0.550805914001539 -0.470746827432886 14.9712560477201
202 67 4 0 6.33953019903973 13.7820646974165 11.3069398887455
203 67 1 0 7.29953019903973 13.7820646974165 11.3069398887455
204 67 4 0 7.53953019903973 12.8520646974165 11.3069398887455
205 68 4 0 5.00566276299767 1.00376314408146 1.86140878940932
206 68 1 0 5.96566276299767 1.00376314408146 1.86140878940932
207 68 4 0 6.20566276299767 0.0737631440814584 1.86140878940932
208 69 4 0 12.6740174791496 5.95184012357146 9.96763733681291
209 69 1 0 13.6340174791496 5.95184012357146 9.96763733681291
210 69 4 0 13.8740174791496 5.02184012357146 9.96763733681291
211 70 4 0 0.128242174834013 6.09255736501887 0.135632964083925
212 70 1 0 1.08824217483401 6.09255736501887 0.135632964083925
213 70 4 0 1.32824217483401 5.16255736501887 0.135632964083925
214 71 4 0 4.15634795950726 5.74051493470557 10.2723379083909
215 71 1 0 5.11634795950726 5.74051493470557 10.2723379083909
216 71 4 0 5.35634795950726 4.81051493470557 10.2723379083909
217 72 4 0 13.0290870093461 9.32031720568426 8.32608315395191
218 72 1 0 13.9890870093461 9.32031720568426 8.32608315395191
219 72 4 0 14.2290870093461 8.39031720568426 8.32608315395191
220 73 4 0 9.10341650524177 5.07090360200033 13.4777601517271
221 73 1 0 10.0634165052418 5.07090360200033 13.4777601517271
222 73 4 0 10.3034165052418 4.14090360200033 13.4777601517271
223 74 4 0 5.20812328250147 0.463095035348088 1.33711749105714
224 74 1 0 6.16812328250147 0.463095035348088 1.33711749105714
225 74 4 0 6.40812328250147 -0.466904964651913 1.33711749105714
226 75 4 0 4.37020709549077 7.31179186766036 11.2470625585411
227 75 1 0 5.33020709549077 7.31179186766036 11.2470625585411
228 75 4 0 5.57020709549077 6.38179186766036 11.2470625585411
229 76 4 0 7.44010604146868 2.98750944243744 11.2252160778735
230 76 1 0 8.40010604146868 2.98750944243744 11.2252160778735
231 76 4 0 8.64010604146868 2.05750944243744 11.2252160778735
232 77 4 0 13.4911259268131 10.6597539064847 6.12810884602368
233 77 1 0 14.4511259268131 10.6597539064847 6.12810884602368
234 77 4 0 14.6911259268131 9.72975390648469 6.12810884602368
235 78 4 0 0.730605040881783 3.39341893833131 7.2420258668717
236 78 1 0 1.69060504088178 3.39341893833131 7.2420258668717
237 78 4 0 1.93060504088178 2.46341893833131 7.2420258668717
238 79 4 0 11.7094097058009 5.90835193213075 8.44633399858139
239 79 1 0 12.6694097058009 5.90835193213075 8.44633399858139
240 79 4 0 12.9094097058009 4.97835193213075 8.44633399858139
241 80 4 0 8.06992430632934 11.4297305424139 0.82770652603358
242 80 1 0 9.02992430632934 11.4297305424139 0.82770652603358
243 80 4 0 9.26992430632934 10.4997305424139 0.82770652603358
244 81 4 0 14.0555368379876 7.70956977544352 12.6989009475801
245 81 1 0 15.0155368379876 7.70956977544352 12.6989009475801
246 81 4 0 15.2555368379876 6.77956977544352 12.6989009475801
247 82 4 0 0.703286480130628 6.86569731374271 7.19730413518846
248 82 1 0 1.66328648013063 6.86569731374271 7.19730413518846
249 82 4 0 1.90328648013063 5.93569731374271 7.19730413518846
250 83 4 0 0.56428747295402 7.86561001598835 8.16949313739315
251 83 1 0 1.52428747295402 7.86561001598835 8.16949313739315
252 83 4 0 1.76428747295402 6.93561001598835 8.16949313739315
253 84 4 0 13.3057667249534 7.82571299158968 10.0436881149653
254 84 1 0 14.2657667249534 7.82571299158968 10.0436881149653
255 84 4 0 14.5057667249534 6.89571299158968 10.0436881149653
256 85 4 0 13.4314864820056 9.04545996029861 9.76358670392074
257 85 1 0 14.3914864820056 9.04545996029861 9.76358670392074
258 85 4 0 14.6314864820056 8.11545996029861 9.76358670392074
259 86 4 0 11.8416109999828 1.58463240758516 8.81131690344773
260 86 1 0 12.8016109999828 1.58463240758516 8.81131690344773
261 86 4 0 13.0416109999828 0.654632407585159 8.81131690344773
262 87 4 0 7.59102230935358 15.1558671418484 5.18824775470421
263 87 1 0 8.55102230935358 15.1558671418484 5.18824775470421
264 87 4 0 8.79102230935358 14.2258671418484 5.18824775470421
265 88 4 0 12.7989783736132 3.17717790993862 12.7400997409131
266 88 1 0 13.7589783736132 3.17717790993862 12.7400997409131
267 88 4 0 13.9989783736132 2.24717790993862 12.7400997409131
268 89 4 0 6.02621327198111 10.5555200161785 4.16406930307858
269 89 1 0 6.98621327198111 10.5555200161785 4.16406930307858
270 89 4 0 7.22621327198111 9.62552001617849 4.16406930307858
271 90 4 0 10.088865056606 9.36357160838321 11.6096509317867
272 90 1 0 11.048865056606 9.36357160838321 11.6096509317867
273 90 4 0 11.288865056606 8.43357160838321 11.6096509317867
274 91 4 0 8.85110245130025 8.46686154994182 10.7736997492611
275 91 1 0 9.81110245130025 8.46686154994182 10.7736997492611
276 91 4 0 10.0511024513002 7.53686154994182 10.7736997492611
277 92 4 0 1.24726705762558 6.79205575300381 7.11779652046971
278 92 1 0 2.20726705762558 6.79205575300381 7.11779652046971
279 92 4 0 2.44726705762558 5.86205575300381 7.11779652046971
280 93 4 0 4.18159938228317 9.53862213104963 4.32523270254023
281 93 1 0 5.14159938228317 9.53862213104963 4.32523270254023
282 93 4 0 5.38159938228317 8.60862213104963 4.32523270254023
283 94 4 0 12.0453056778945 5.66240614437498 0.878704661736265
284 94 1 0 13.0053056778945 5.66240614437498 0.878704661736265
285 94 4 0 13.2453056778945 4.73240614437498 0.878704661736265
286 95 4 0 7.36756610378623 9.1118230185844 12.5682405894622
287 95 1 0 8.32756610378623 9.1118230185844 12.5682405894622
288 95 4 0 8.56756610378623 8.1818230185844 12.5682405894622
289 96 4 0 6.96153066630475 1.1947037923988 8.26041273074225
290 96 1 0 7.92153066630475 1.1947037923988 8.26041273074225
291 96 4 0 8.16153066630475 0.264703792398795 8.26041273074225
292 97 4 0 0.693633388001472 4.55757727538235 14.5740854577161
293 97 1 0 1.65363338800147 4.55757727538235 14.5740854577161
294 97 4 0 1.89363338800147 3.62757727538235 14.5740854577161
295 98 4 0 4.09311821728013 6.14812762633897 7.48964432976209
296 98 1 0 5.05311821728013 6.14812762633897 7.48964432976209
297 98 4 0 5.29311821728013 5.21812762633897 7.48964432976209
298 99 4 0 12.1636301830597 7.55933309131302 11.091749262996
299 99 1 0 13.1236301830597 7.55933309131302 11.091749262996
300 99 4 0 13.3636301830597 6.62933309131302 11.091749262996
301 100 4 0 10.5817093541566 5.57829080889001 8.314970304491
302 100 1 0 11.5417093541566 5.57829080889001 8.314970304491
303 100 4 0 11.7817093541566 4.64829080889001 8.314970304491
304 101 4 0 0.0192241526395083 5.42022496270016 12.7700855454896
305 101 1 0 0.979224152639508 5.42022496270016 12.7700855454896
306 101 4 0 1.21922415263951 4.49022496270016 12.7700855454896
307 102 4 0 10.4382281906158 5.70837773307227 14.7178588982206
308 102 1 0 11.3982281906158 5.70837773307227 14.7178588982206
309 102 4 0 11.6382281906158 4.77837773307227 14.7178588982206
310 103 4 0 0.622941282782704 12.3212453226466 10.2395209029783
311 103 1 0 1.5829412827827 12.3212453226466 10.2395209029783
312 103 4 0 1.8229412827827 11.3912453226466 10.2395209029783
313 104 4 0 4.82528153850697 0.804545792462304 3.13203597441316
314 104 1 0 5.78528153850697 0.804545792462304 3.13203597441316
315 104 4 0 6.02528153850697 -0.125454207537696 3.13203597441316
316 105 4 0 11.7273538587335 9.23823988455348 13.2020122837275
317 105 1 0 12.6873538587335 9.23823988455348 13.2020122837275
318 105 4 0 12.9273538587336 8.30823988455348 13.2020122837275
319 106 4 0 13.0129283554573 6.94428714498877 11.4142917562276
320 106 1 0 13.9729283554573 6.94428714498877 11.4142917562276
321 106 4 0 14.2129283554573 6.01428714498878 11.4142917562276
322 107 4 0 5.41378238864243 3.77140005858615 9.6177935146261
323 107 1 0 6.37378238864243 3.77140005858615 9.6177935146261
324 107 4 0 6.61378238864243 2.84140005858615 9.6177935146261
325 108 4 0 4.24384397498332 8.68103935540654 7.82445442629978
326 108 1 0 5.20384397498332 8.68103935540654 7.82445442629978
327 108 4 0 5.44384397498332 7.75103935540654 7.82445442629978
328 109 4 0 5.20479052604176 8.18154558929615 12.9802282084711
329 109 1 0 6.16479052604176 8.18154558929615 12.9802282084711
330 109 4 0 6.40479052604176 7.25154558929615 12.9802282084711
331 110 4 0 3.95322991462424 6.4113172834646 4.19700152124278
332 110 1 0 4.91322991462424 6.4113172834646 4.19700152124278
333 110 4 0 5.15322991462424 5.4813172834646 4.19700152124278
334 111 4 0 2.76593179020099 8.64518936880864 14.6945526113268
335 111 1 0 3.72593179020099 8.64518936880864 14.6945526113268
336 111 4 0 3.96593179020099 7.71518936880864 14.6945526113268
337 112 4 0 11.9661443195958 5.73413299903274 8.58044611522928
338 112 1 0 12.9261443195958 5.73413299903274 8.58044611522928
339 112 4 0 13.1661443195958 4.80413299903274 8.58044611522928
340 113 4 0 8.29336240349337 4.5911133118812 4.12524411105551
341 113 1 0 9.25336240349337 4.5911133118812 4.12524411105551
342 113 4 0 9.49336240349338 3.6611133118812 4.12524411105551
343 114 4 0 0.887345987576991 15.2403600855637 6.25883522909135
344 114 1 0 1.84734598757699 15.2403600855637 6.25883522909135
345 114 4 0 2.08734598757699 14.3103600855637 6.25883522909135
346 115 4 0 5.94885567130521 10.3711066806596 7.44795256177895
347 115 1 0 6.90885567130521 10.3711066806596 7.44795256177895
348 115 4 0 7.14885567130521 9.44110668065958 7.44795256177895
349 116 4 0 -0.224942384082824 10.289422383476 3.20744330179878
350 116 1 0 0.735057615917176 10.289422383476 3.20744330179878
351 116 4 0 0.975057615917176 9.35942238347605 3.20744330179878
352 117 4 0 7.80930416003801 1.71486483811401 7.07264163647778
353 117 1 0 8.76930416003801 1.71486483811401 7.07264163647778
354 117 4 0 9.00930416003801 0.784864838114008 7.07264163647778
355 118 4 0 0.977383570717648 0.509968680972233 7.50258144456893
356 118 1 0 1.93738357071765 0.509968680972233 7.50258144456893
357 118 4 0 2.17738357071765 -0.420031319027767 7.50258144456893
358 119 4 0 5.25397237666883 2.17358428443782 10.370630028192
359 119 1 0 6.21397237666883 2.17358428443782 10.370630028192
360 119 4 0 6.45397237666883 1.24358428443782 10.370630028192
361 120 4 0 2.09748502864502 5.47603376250714 12.8380547545385
362 120 1 0 3.05748502864502 5.47603376250714 12.8380547545385
363 120 4 0 3.29748502864502 4.54603376250714 12.8380547545385
364 121 4 0 8.32031254467554 6.29464977229014 4.06631668796763
365 121 1 0 9.28031254467554 6.29464977229014 4.06631668796763
366 121 4 0 9.52031254467554 5.36464977229014 4.06631668796763
367 122 4 0 6.02061864148825 6.23860023723915 10.0393581320532
368 122 1 0 6.98061864148825 6.23860023723915 10.0393581320532
369 122 4 0 7.22061864148825 5.30860023723915 10.0393581320532
370 123 4 0 7.41472835230641 14.9859223088156 12.2166635957547
371 123 1 0 8.37472835230641 14.9859223088156 12.2166635957547
372 123 4 0 8.61472835230641 14.0559223088156 12.2166635957547
373 124 4 0 3.42498707978055 12.0380833888799 6.18311840691604
374 124 1 0 4.38498707978055 12.0380833888799 6.18311840691604
375 124 4 0 4.62498707978055 11.1080833888799 6.18311840691604
376 125 4 0 3.63503318323754 7.8215033169277 3.71168495155871
377 125 1 0 4.59503318323754 7.8215033169277 3.71168495155871
378 125 4 0 4.83503318323754 6.8915033169277 3.71168495155871
379 126 4 0 5.33316604720429 8.24604650301859 4.87841139547527
380 126 1 0 6.29316604720429 8.24604650301859 4.87841139547527
381 126 4 0 6.53316604720429 7.31604650301859 4.87841139547527
382 127 4 0 -0.189765855465084 2.17757557210512 8.9380612259265
383 127 1 0 0.770234144534916 2.17757557210512 8.9380612259265
384 127 4 0 1.01023414453492 1.24757557210512 8.9380612259265
385 128 4 0 -0.228677199482918 0.693725472493097 10.3688836377114
386 128 1 0 0.731322800517082 0.693725472493097 10.3688836377114
387 128 4 0 0.971322800517082 -0.236274527506903 10.3688836377114
388 129 4 0 -0.630596259869635 11.2724307567719 14.8970384162385
389 129 1 0 0.329403740130365 11.2724307567719 14.8970384162385
390 129 4 0 0.569403740130365 10.3424307567719 14.8970384162385
391 130 4 0 0.895950465202332 14.7220768166613 10.3158247692045
392 130 1 0 1.85595046520233 14.7220768166613 10.3158247692045
393 130 4 0 2.09595046520233 13.7920768166613 10.3158247692045
394 131 4 0 -0.430707510821521 5.29906927416101 7.29349737404846
395 131 1 0 0.529292489178479 5.29906927416101 7.29349737404846
396 131 4 0 0.769292489178479 4.36906927416101 7.29349737404846
397 132 4 0 4.63613851505332 2.69224408938549 13.5294189909473
398 132 1 0 5.59613851505332 2.69224408938549 13.5294189909473
399 132 4 0 5.83613851505332 1.76224408938549 13.5294189909473
400 133 4 0 8.99829239395447 13.8748834309541 5.10388500988483
401 133 1 0 9.95829239395447 13.8748834309541 5.10388500988483
402 133 4 0 10.1982923939545 12.9448834309541 5.10388500988483
403 134 4 0 12.7100779562909 9.53778847045265 5.61376223573461
404 134 1 0 13.6700779562909 9.53778847045265 5.61376223573461
405 134 4 0 13.9100779562909 8.60778847045265 5.61376223573461
406 135 4 0 2.12471728373319 13.7825090395659 10.9250432637054
407 135 1 0 3.08471728373319 13.7825090395659 10.9250432637054
408 135 4 0 3.32471728373319 12.8525090395659 10.9250432637054
409 136 4 0 3.56218407556415 6.3205255630333 2.64743164996617
410 136 1 0 4.52218407556415 6.3205255630333 2.64743164996617
411 136 4 0 4.76218407556415 5.3905255630333 2.64743164996617
412 137 4 0 12.0633001466934 9.47736329905689 5.39848142769188
413 137 1 0 13.0233001466934 9.47736329905689 5.39848142769188
414 137 4 0 13.2633001466934 8.54736329905689 5.39848142769188
415 138 4 0 2.50155536385253 8.22063838405535 10.5251031636726
416 138 1 0 3.46155536385253 8.22063838405535 10.5251031636726
417 138 4 0 3.70155536385253 7.29063838405535 10.5251031636726
418 139 4 0 5.84095498125069 7.28373794508167 5.40512068080716
419 139 1 0 6.80095498125069 7.28373794508167 5.40512068080716
420 139 4 0 7.04095498125069 6.35373794508167 5.40512068080716
421 140 4 0 3.32428036417812 4.13320114062168 4.92644601501524
422 140 1 0 4.28428036417812 4.13320114062168 4.92644601501524
423 140 4 0 4.52428036417812 3.20320114062168 4.92644601501524
424 141 4 0 8.47067320763133 9.35018184985034 10.9379392722622
425 141 1 0 9.43067320763133 9.35018184985034 10.9379392722622
426 141 4 0 9.67067320763134 8.42018184985034 10.9379392722622
427 142 4 0 13.9206233066227 2.66753677436151 9.86749617964961
428 142 1 0 14.8806233066227 2.66753677436151 9.86749617964961
429 142 4 0 15.1206233066227 1.73753677436151 9.86749617964961
430 143 4 0 0.356470435364172 7.85945493652485 6.62045933771878
431 143 1 0 1.31647043536417 7.85945493652485 6.62045933771878
432 143 4 0 1.55647043536417 6.92945493652485 6.62045933771878
433 144 4 0 1.34727874581702 6.79633234319277 10.1644099073019
434 144 1 0 2.30727874581702 6.79633234319277 10.1644099073019
435 144 4 0 2.54727874581702 5.86633234319277 10.1644099073019
436 145 4 0 9.39647320585325 1.56149571103975 8.76462728600018
437 145 1 0 10.3564732058533 1.56149571103975 8.76462728600018
438 145 4 0 10.5964732058533 0.631495711039752 8.76462728600018
439 146 4 0 13.7293142911233 13.883361823801 2.63426252407953
440 146 1 0 14.6893142911233 13.883361823801 2.63426252407953
441 146 4 0 14.9293142911233 12.953361823801 2.63426252407953
442 147 4 0 3.62336951351725 3.76363056170754 14.2499103723094
443 147 1 0 4.58336951351725 3.76363056170754 14.2499103723094
444 147 4 0 4.82336951351725 2.83363056170754 14.2499103723094
445 148 4 0 13.8285223887954 12.7690614216868 14.0771655854769
446 148 1 0 14.7885223887954 12.7690614216868 14.0771655854769
447 148 4 0 15.0285223887954 11.8390614216868 14.0771655854769
448 149 4 0 12.1394085643999 8.36749205523171 13.1581503187772
449 149 1 0 13.0994085643999 8.36749205523171 13.1581503187772
450 149 4 0 13.3394085643999 7.43749205523171 13.1581503187772
451 150 4 0 3.47004076276906 2.85379170830362 9.16300441604108
452 150 1 0 4.43004076276906 2.85379170830362 9.16300441604108
453 150 4 0 4.67004076276906 1.92379170830362 9.16300441604108
454 151 4 0 14.2217032033671 4.88567462697625 14.6104742086027
455 151 1 0 15.1817032033671 4.88567462697625 14.6104742086027
456 151 4 0 15.4217032033671 3.95567462697625 14.6104742086027
457 152 4 0 8.14483850190416 11.9426563537586 3.78339093527757
458 152 1 0 9.10483850190416 11.9426563537586 3.78339093527757
459 152 4 0 9.34483850190416 11.0126563537586 3.78339093527757
460 153 4 0 10.2278885564022 11.2057727358211 12.6942761766259
461 153 1 0 11.1878885564022 11.2057727358211 12.6942761766259
462 153 4 0 11.4278885564022 10.2757727358211 12.6942761766259
463 154 4 0 4.35516108686104 2.66704236081801 6.86218640534207
464 154 1 0 5.31516108686104 2.66704236081801 6.86218640534207
465 154 4 0 5.55516108686104 1.73704236081801 6.86218640534207
466 155 4 0 5.20130162171088 7.63874292414635 11.6302236740012
467 155 1 0 6.16130162171088 7.63874292414635 11.6302236740012
468 155 4 0 6.40130162171088 6.70874292414635 11.6302236740012
469 156 4 0 11.2041897377651 2.85565114621073 6.92791567300446
470 156 1 0 12.1641897377651 2.85565114621073 6.92791567300446
471 156 4 0 12.4041897377651 1.92565114621073 6.92791567300446
472 157 4 0 8.8049052986037 6.63911785040051 7.24203558987938
473 157 1 0 9.7649052986037 6.63911785040051 7.24203558987938
474 157 4 0 10.0049052986037 5.70911785040051 7.24203558987938
475 158 4 0 4.51338142898865 5.24993079289794 1.92633868544362
476 158 1 0 5.47338142898865 5.24993079289794 1.92633868544362