LAMMPS (29 Sep 2021 - Update 1)
# Test LAMMPS input file for single DeFDe

# Initialize simulation

clear

units real
atom_style full
boundary p p p
dielectric 1
special_bonds dreiding

bond_style harmonic
angle_style harmonic
dihedral_style harmonic
improper_style umbrella
pair_style hybrid/overlay hbond/dreiding/lj 4 9.0 11.0 90 lj/cut 8.50000

# Read data file
read_data frag5.dat
Reading data file ...
  triclinic box = (0.0000000 0.0000000 0.0000000) to (15.000000 15.000000 15.000000) with tilt (0.0000000 0.0000000 0.0000000)
  2 by 4 by 4 MPI processor grid
  reading atoms ...
  1506 atoms
  scanning bonds ...
  3 = max bonds/atom
  scanning angles ...
  6 = max angles/atom
  scanning dihedrals ...
  3 = max dihedrals/atom
  reading bonds ...
  1005 bonds
  reading angles ...
  507 angles
  reading dihedrals ...
  3 dihedrals
Finding 1-2 1-3 1-4 neighbors ...
  special bond factors lj:    0        0        1       
  special bond factors coul:  0        0        1       
     4 = max # of 1-2 neighbors
     3 = max # of 1-3 neighbors
     5 = max # of special neighbors
  special bonds CPU = 0.002 seconds
  read_data CPU = 0.016 seconds

# Dreiding potential information

bond_coeff 1 350 1.42
bond_coeff 2 350 1.09
bond_coeff 3 350 0.98

angle_coeff 1 50 104.51
angle_coeff 2 50 109.471

dihedral_coeff 1 0.333333333333333 -1 3

improper_coeff 1 40 0

pair_coeff 1 1 lj/cut 0.0957 3.4046
pair_coeff 1 2 lj/cut 0.0953995283007206 3.64309650983885
pair_coeff 1 3 lj/cut 0.0381397430510485 3.29813538230316
pair_coeff 1 4 lj/cut 0.0030935416596516 3.29710294046152
pair_coeff 2 2 lj/cut 0.0951 3.8983
pair_coeff 2 3 lj/cut 0.0380199947396104 3.52917391183829
pair_coeff 2 4 lj/cut 0.00308382878902186 3.52806914614779
pair_coeff 3 3 lj/cut 0.0152 3.195
pair_coeff 3 4 lj/cut 0.0012328828005938 3.19399984345648
pair_coeff 4 4 lj/cut 1e-04 3.193
pair_coeff 1 1 hbond/dreiding/lj 4 j 9.50 2.75 4 9.0 11.0 90

neighbor 2 bin
neigh_modify every 2 one 10000

# Gemoetric relaxation
fix 1 all box/relax iso 1.0 vmax 0.001
minimize 1.0e-4 1.0e-6 10000 10000
WARNING: Using 'neigh_modify every 1 delay 0 check yes' setting during minimization (../min.cpp:188)
Neighbor list info ...
  update every 1 steps, delay 0 steps, check yes
  max neighbors/atom: 10000, page size: 100000
  master list distance cutoff = 13
  ghost atom cutoff = 13
  binsize = 6.5, bins = 3 3 3
  3 neighbor lists, perpetual/occasional/extra = 3 0 0
  (1) pair hbond/dreiding/lj, perpetual, skip from (3)
      attributes: full, newton on
      pair build: skip
      stencil: none
      bin: none
  (2) pair lj/cut, perpetual, half/full from (3)
      attributes: half, newton on
      pair build: halffull/newton
      stencil: none
      bin: none
  (3) neighbor class addition, perpetual
      attributes: full, newton on
      pair build: full/bin
      stencil: full/bin/3d
      bin: standard
Per MPI rank memory allocation (min/avg/max) = 11.85 | 12.17 | 12.44 Mbytes
Step Temp E_pair E_mol TotEng Press Volume 
       0            0 6.5235492e+17      199.904 6.5235492e+17 5.3014451e+19         3375 
    4913            0   -1008.1753    17.755561    -990.4197    94.869179    36638.639 
Loop time of 4.671 on 32 procs for 4913 steps with 1506 atoms

100.0% CPU use with 32 MPI tasks x no OpenMP threads

Minimization stats:
  Stopping criterion = energy tolerance
  Energy initial, next-to-last, final = 
    6.52354920801318e+17  -989.849356982408  -989.934579819719
  Force two-norm initial, final = 2.0263601e+20 102.69427
  Force max component initial, final = 1.0639117e+20 67.957539
  Final line search alpha, max atom move = 1.2492975e-05 0.00084899183
  Iterations, force evaluations = 4913 4921

MPI task timing breakdown:
Section |  min time  |  avg time  |  max time  |%varavg| %total
---------------------------------------------------------------
Pair    | 1.2889     | 2.5047     | 3.9425     |  40.1 | 53.62
Bond    | 0.0068327  | 0.0099784  | 0.013608   |   1.9 |  0.21
Neigh   | 0.08947    | 0.089908   | 0.090249   |   0.1 |  1.92
Comm    | 0.30582    | 1.7416     | 2.9559     |  48.1 | 37.29
Output  | 0          | 0          | 0          |   0.0 |  0.00
Modify  | 0          | 0          | 0          |   0.0 |  0.00
Other   |            | 0.3248     |            |       |  6.95

Nlocal:        47.0625 ave          68 max          27 min
Histogram: 4 1 3 3 2 11 2 2 2 2
Nghost:        1945.41 ave        1993 max        1905 min
Histogram: 2 3 4 2 7 4 4 3 2 1
Neighs:        4878.94 ave        8240 max        2482 min
Histogram: 4 2 3 4 11 3 0 3 1 1

Total # of neighbors = 156126
Ave neighs/atom = 103.66932
Ave special neighs/atom = 2.0079681
Neighbor list builds = 89
Dangerous builds = 0

# MD simulation
velocity all create 300.0 12345 rot yes dist gaussian
timestep 1.0
fix 2 all nvt temp 300.0 300.0 1

# Compute interaction energy
group WAT molecule <> 2 501
1500 atoms in group WAT
group MOL molecule 1
6 atoms in group MOL

compute w WAT group/group MOL pair yes
fix 3 all ave/time 10 5 100 c_w file outa

# Outputs
thermo 100 # Output thermodynamic data every nth step
#dump mf1 all xyz 10000 mol_*.xyz

# Run
run 1000000
Neighbor list info ...
  update every 2 steps, delay 10 steps, check yes
  max neighbors/atom: 10000, page size: 100000
  master list distance cutoff = 13
  ghost atom cutoff = 13
  binsize = 6.5, bins = 6 6 6
  4 neighbor lists, perpetual/occasional/extra = 3 1 0
  (1) pair hbond/dreiding/lj, perpetual, skip from (4)
      attributes: full, newton on
      pair build: skip
      stencil: none
      bin: none
  (2) pair lj/cut, perpetual, half/full from (4)
      attributes: half, newton on
      pair build: halffull/newton
      stencil: none
      bin: none
  (3) compute group/group, occasional, copy from (2)
      attributes: half, newton on
      pair build: copy
      stencil: none
      bin: none
  (4) neighbor class addition, perpetual
      attributes: full, newton on
      pair build: full/bin
      stencil: full/bin/3d
      bin: standard
Per MPI rank memory allocation (min/avg/max) = 10.69 | 10.71 | 10.91 Mbytes
Step Temp E_pair E_mol TotEng Press Volume 
    4913          300   -1008.1753    17.755561    355.41604     1774.004    36638.639 
    5000    297.50723   -1116.5785    232.03087    450.10525    1019.3068    36638.639 
    5100    295.86567   -1098.8889    164.76869    393.16842    1037.5472    36638.639 
    5200    303.07404   -1113.3353    159.46643    405.75739    590.24033    36638.639 
    5300    301.14816   -1113.2679     171.6109    409.32948    118.07721    36638.639 
    5400     290.7115   -1106.2095    183.26908    381.22597    8.1748795    36638.639 
    5500    299.75288   -1120.3211    166.52134    390.92734    67.292526    36638.639 
    5600    293.94587   -1102.1046    185.30873    401.88029    380.83273    36638.639 
    5700    297.54526   -1110.2605    164.33835    388.90135    765.97411    36638.639 
    5800    312.43974   -1139.7562    176.11725    438.00297    438.10756    36638.639 
    5900     311.3431   -1139.4396    174.12289    431.40556    672.86167    36638.639 
    6000    299.91182    -1105.163    171.29695     411.5741    249.08549    36638.639 
    6100     296.0516     -1042.53    191.03249     476.6252    154.44629    36638.639 
    6200    294.78824   -1111.6838    180.95459    391.72599   -39.556887    36638.639 
    6300    293.99587   -1059.7546    190.37041    449.51629    144.81892    36638.639 
    6400    294.50275    -1071.034    180.76815    430.90852   -266.07247    36638.639 
    6500    307.12849   -1075.2129    190.75476    493.35686    238.07986    36638.639 
    6600    306.56266   -1080.2991    197.68551      492.663    532.12381    36638.639 
    6700    301.83923   -1079.0866    193.02525    468.02537    309.79965    36638.639 
    6800    295.09007   -1102.2858    196.85301     418.3764   -13.681446    36638.639 
    6900    298.89275   -1099.6535    193.64048    434.85544   -203.43467    36638.639 
    7000    294.54098   -1089.3819    198.66045    430.62444    79.614074    36638.639 
    7100    298.06967   -1084.8719    197.89418    450.19837    122.33716    36638.639 
    7200    295.74082   -1110.7441    205.79618    421.78067    153.30144    36638.639 
    7300     292.8853   -1106.4991    202.26409     409.6833    509.52272    36638.639 
    7400     290.8489   -1150.8741    202.88619    356.79494    810.75038    36638.639 
    7500    294.36653   -1084.3472    196.65489    432.87106     360.8963    36638.639 
    7600    299.03122   -1083.6657    197.17486    454.99881    908.67704    36638.639 
    7700    294.13827   -1154.1972    200.44235    365.78451    201.56291    36638.639 
    7800    305.30641   -1144.4274    199.36004    424.57358    122.19063    36638.639 
    7900    302.57225    -1160.907    195.30925    391.77742    564.86196    36638.639 
    8000      286.969   -1190.5927    209.86402     306.6484    161.52765    36638.639 
    8100    298.98637    -1167.751    207.86123    381.39876     299.8152    36638.639 
    8200    296.50046   -1174.9981    210.98273    366.12104    700.42103    36638.639 
    8300    297.54051   -1193.5339    204.24028    345.50858     613.1691    36638.639 
    8400    300.13217   -1181.2152    211.36251    376.57599     160.2541    36638.639 
    8500    306.35194   -1154.7606    207.61328    427.18394    372.53959    36638.639 
    8600    307.50189   -1163.7758    193.54173    409.25605    217.24323    36638.639 
    8700    302.42951   -1162.2638    213.20882    407.67988    345.54023    36638.639 
    8800     297.7976   -1154.8223       214.11    395.24324    627.34011    36638.639 
    8900    293.33805   -1136.2618    208.27784    387.96552    442.86126    36638.639 
    9000     299.4782   -1153.0261    227.12771    417.59651     414.2313    36638.639 
    9100    297.96208   -1167.3063    218.50107    387.88814    250.31653    36638.639 
    9200    296.42108   -1171.5771    230.87549     389.0787    440.79292    36638.639 
    9300    299.53946   -1192.9442    213.08422    363.90973    608.81243    36638.639 
    9400    306.21997   -1163.2776    221.37663    431.83835    472.90371    36638.639 
    9500    298.35345    -1205.279    214.85321     348.0233    269.63866    36638.639 
    9600    303.26924     -1153.13    206.74362    414.11558    654.72402    36638.639 
    9700     288.5332   -1208.8024    237.34802    322.93995    391.96251    36638.639 
    9800    299.85152   -1129.4774    215.37643    431.06863    88.099004    36638.639 
    9900     302.1499   -1162.1037    251.49433    444.87106    191.51841    36638.639 
   10000    298.58151     -1152.09     226.5056    413.88787    316.02023    36638.639 
   10100    298.08251   -1138.8899    244.74978    443.09353    762.33999    36638.639 
   10200    302.18456   -1192.7267    224.16251    387.07177    432.44192    36638.639 
   10300    293.56795   -1199.4215    230.62588    348.18522    517.44662    36638.639 
   10400    306.06946   -1216.9378    216.91601    373.04232    439.79783    36638.639 
   10500    290.52982   -1170.9421    235.52088    367.93018    88.090227    36638.639 
   10600    301.53828   -1206.8443    242.29327     388.1856    89.118761    36638.639 
   10700    293.92859   -1213.7228    238.32263    343.19847     619.3943    36638.639 
   10800    301.67718   -1207.6545    243.85944    389.56472    450.37266    36638.639 
   10900    295.15958   -1237.6211    242.38268     328.8826    863.28478    36638.639 
   11000    309.95896   -1209.3145     240.3138    421.51207     619.9452    36638.639 
   11100    303.77414    -1189.219     248.1387    421.68665    692.74611    36638.639 
   11200    300.55386   -1170.7798    237.39665    414.93727     601.3041    36638.639 
   11300    300.53082    -1237.689    241.27518    351.80328    588.99733    36638.639 
   11400    302.20837    -1186.755    239.51628    408.50402    352.81355    36638.639 
   11500    293.84004   -1230.8647    245.67768     333.0144   -111.74306    36638.639 
   11600    303.49335    -1212.686    249.85932    398.68058    7.7381641    36638.639 
   11700     297.8534   -1215.0807    252.66019    373.78528   -351.65629    36638.639 
   11800    294.42436   -1202.8818    243.10172    361.04268   -247.29293    36638.639 
   11900    293.74739   -1180.0999    247.30551     384.9914    21.323331    36638.639 
   12000    297.46872   -1164.4678    262.29344    432.30575    119.53404    36638.639 
   12100    292.96429   -1147.4413    248.36979    415.20117     121.6726    36638.639 
   12200    298.01372   -1196.2734    268.79132    409.44293    592.08535    36638.639 
   12300    308.58341   -1237.8853     244.2216    390.67824    345.82731    36638.639 
   12400    289.76309   -1217.9375    238.97231    320.94658    264.35776    36638.639 
   12500     307.2579   -1226.1946    255.23288    407.43385    648.45443    36638.639 
   12600    301.37072   -1201.2627    256.66877    407.39097    568.61837    36638.639 
   12700    293.24109   -1187.1249    244.28816    372.67769    246.04092    36638.639 
   12800      297.148   -1176.2481    281.34968     438.1429    109.38563    36638.639 
   12900    293.07608   -1207.6376    249.43213     356.5687    369.95478    36638.639 
   13000    301.21386   -1174.0072    264.38941    441.66351    609.34904    36638.639 
   13100    287.08087   -1205.5167    266.67211    349.03433    -4.814393    36638.639 
   13200    297.56638   -1215.4236    262.49917    381.99377    203.44907    36638.639 
   13300    294.46518   -1191.7234    261.86124    391.14375    314.82417    36638.639 
   13400    297.72108   -1222.1883    268.51469    381.93863    250.59644    36638.639 
   13500    293.69114   -1180.2866    272.20195    409.44884    171.60881    36638.639 
   13600     294.8758    -1177.774    267.98818    413.06217    276.64613    36638.639 
   13700    286.95873   -1184.0342    278.21556    381.51241    493.67659    36638.639 
   13800    306.17795   -1223.1793    260.94376    411.31525    550.64352    36638.639 
   13900    308.39773   -1226.8709    261.99048    418.62856    544.36982    36638.639 
   14000    302.52261   -1205.2898     269.9154    421.77804    431.78961    36638.639 
   14100    298.67618   -1222.4226    273.26219    390.73651     231.6836    36638.639 
   14200    291.48071   -1230.0981     272.6367    350.15583    337.32176    36638.639 
   14300    305.04909   -1245.8437    277.87443    400.51734    341.84584    36638.639 
   14400    293.22172   -1266.1661    271.93857    321.20009    308.92296    36638.639 
   14500    296.01031   -1214.7216    268.91641    382.13237    474.49689    36638.639 
   14600    294.12771   -1179.8553    283.49001    423.12663    773.97348    36638.639 
   14700    299.65143   -1246.6148    268.99105     366.6483   -77.480849    36638.639 
   14800     296.9483   -1221.7141    272.00225    382.43363    355.96799    36638.639 
   14900    309.53875   -1209.5117    265.99525    445.11123    236.39732    36638.639 
   15000    290.54261   -1265.0485     267.6649    306.02514    123.27157    36638.639 
   15100    300.95109   -1264.3213    277.17112    362.95224    385.87093    36638.639 
   15200    308.35716   -1269.7183    280.16867    393.77727    501.67241    36638.639 
   15300    295.98211    -1283.701    273.93548    318.04548     162.2175    36638.639 
   15400    296.00199   -1228.2649    275.86415    375.49939    217.35785    36638.639 
   15500    297.08709   -1219.9669    274.58401    387.38524    291.60619    36638.639 
   15600    295.01094   -1178.0257    272.88934     418.3179   -21.992197    36638.639 
   15700    306.65738   -1184.9354    278.70768    469.47384    80.424856    36638.639 
   15800    300.47304   -1266.0753    275.35328    357.23586    323.28361    36638.639 
   15900    296.79036   -1257.6843    281.92244    355.67501   -154.64942    36638.639 
   16000    307.67815   -1214.6598    263.88141    429.50243    466.52867    36638.639 
   16100    292.17346    -1236.031    274.46274    349.15666    264.36034    36638.639 
   16200    302.07857   -1242.5468    305.33405    417.94772    421.69334    36638.639 
   16300     304.0445   -1227.2814    284.42312    421.12155    296.11246    36638.639 
   16400    304.62547     -1250.23    294.03909    410.39517    609.36341    36638.639 
   16500    287.47146   -1273.9299    283.51371    299.21497    485.01564    36638.639 
   16600    294.34254   -1220.1506    294.10762     394.4127    390.74669    36638.639 
   16700    295.39528   -1247.7496      299.159    376.58784    125.16981    36638.639 
   16800    289.29861    -1278.208     277.9795    297.59948    178.23223    36638.639 
   16900    292.79992   -1244.6594    302.39783    371.27373   -691.62212    36638.639 
   17000    303.90781    -1196.885    295.65941    462.14105    258.25612    36638.639 
   17100    301.92504   -1202.7831    300.35671    452.04529    499.23366    36638.639 
   17200    309.21447   -1242.3078    292.35966    437.22479    333.42037    36638.639 
   17300     299.7195   -1245.6102    297.71619    396.68335    239.84255    36638.639 
   17400      292.051   -1239.6975     302.1516    372.62964     536.9896    36638.639 
   17500    297.15801     -1227.48    293.47648    399.08273    597.02699    36638.639 
   17600    317.77718   -1255.5372    297.02979    467.07892    657.19683    36638.639 
   17700    306.04967   -1219.5884    304.88888    458.27569    587.82111    36638.639 
   17800    308.19988   -1219.2813    310.36377    473.70388    855.11055    36638.639 
   17900    309.00125    -1263.889     294.2572    416.58463    609.50576    36638.639 
   18000    299.56369   -1248.8332    300.48822    395.53335    14.252084    36638.639 
   18100    299.37524   -1253.6564    298.96407    388.34063    430.88277    36638.639 
   18200    308.10624   -1236.3583     308.0565    453.89952    817.48817    36638.639 
   18300    308.41123   -1226.2621    307.20261    464.51004    458.94103    36638.639 
   18400    305.75989   -1222.0146    296.00721    445.66788    206.22772    36638.639 
   18500    302.20808   -1222.8326    302.31374    435.22256    242.87236    36638.639 
   18600    298.29508   -1243.6428    306.42716    400.97159    112.83429    36638.639 
   18700     295.0265   -1235.0101    309.90388    398.41778   -140.64601    36638.639 
   18800    287.68987   -1220.3778    291.97286    362.20605   -362.93631    36638.639 
   18900      299.583   -1253.3529    329.37675    419.98887   -278.88641    36638.639 
   19000     295.4994   -1241.2547    301.27709    385.66792    98.018282    36638.639 
   19100    300.46261   -1229.9081    314.57352     432.5765    291.86322    36638.639 
   19200    304.37657    -1224.924    310.46438    451.00997    48.975205    36638.639 
   19300    298.87285   -1210.8347    297.35373    427.29818   -68.029792    36638.639 
   19400     297.9315   -1237.3325    319.63658    418.86028    -109.6359    36638.639 
   19500    300.86336   -1253.5548    320.89934    417.05343    30.090431    36638.639 
   19600    302.65787   -1277.2567    321.35446    401.85702    -80.87162    36638.639 
   19700    304.09509   -1250.8959    294.34647    407.65736    205.06006    36638.639 
   19800    291.12149   -1208.7728    330.51795    427.75085   -415.69032    36638.639 
   19900    299.99846   -1201.7133    306.72359    450.83918   -26.456434    36638.639 
   20000    292.41536   -1285.1944    310.25285    336.86854    242.11139    36638.639 
   20100    311.29262   -1294.0117    308.40842    410.89253    365.43741    36638.639 
   20200    295.92339   -1273.9725    306.88941    360.46451    732.71566    36638.639 
   20300    304.03569   -1232.6805    334.23484    465.49466    651.66911    36638.639 
   20400    311.89024   -1234.2576    295.98532    460.90447    334.16647    36638.639 
   20500    306.36142   -1205.4714    315.63211     484.5345    -82.99189    36638.639 
   20600     309.7128   -1221.2349    325.54237    493.71603      583.321    36638.639 
   20700     296.1759   -1245.7538    320.66829    403.59492    399.27831    36638.639 
   20800    285.33187   -1218.1933    320.18147    382.02093    383.42837    36638.639 
   20900    300.12788    -1237.645    316.42841    425.19278    421.08847    36638.639 
   21000    300.86807   -1205.3248    347.39365    491.79886    754.92681    36638.639 
   21100    304.99602   -1236.9224    337.33064    468.65669    1047.5659    36638.639 
   21200    297.27017   -1279.3014    341.21365    395.50171    342.74361    36638.639 
   21300    305.82771   -1254.6811    303.71751    421.01595   -37.606497    36638.639 
   21400    306.06231   -1225.3003    326.03749     473.7692    174.46936    36638.639 
   21500    298.94848   -1210.7653    329.88802    460.24117    580.47259    36638.639 
   21600     298.8915   -1221.1393    304.94556     424.6691    112.62266    36638.639 
   21700    302.82651   -1254.7931    321.81587    425.53855    29.540521    36638.639 
   21800    296.16735   -1249.4788     320.1008    399.26403    235.67984    36638.639 
   21900    300.53825   -1248.7287    311.22365     410.7454    244.77019    36638.639 
   22000    298.71254   -1276.7444    329.79337    393.10897   -162.45915    36638.639 
   22100    294.92496   -1252.6247     322.8937    393.33749   -16.750738    36638.639 
   22200    303.87493   -1244.3468    317.63227    436.50462    494.33714    36638.639 
   22300    302.55641   -1258.1663    324.29577    423.43363    255.14183    36638.639 
   22400    306.65056   -1241.3509    309.63365    443.95365    253.82404    36638.639 
   22500    295.98182   -1254.0373    322.22103    395.99344   -29.964509    36638.639 
   22600    310.12284   -1264.1885    320.31843    447.37793    290.05754    36638.639 
   22700    298.70278   -1285.6822    310.83294    365.16702    193.39967    36638.639 
   22800    307.21109   -1267.4777    330.27129    440.97909     252.0738    36638.639 
   22900    299.87647   -1286.2031    323.50196    382.58044     9.813618    36638.639 
   23000    309.28666   -1306.6006    306.36202    387.25825    998.93817    36638.639 
   23100    286.97855   -1278.5874    324.33028     333.1629    338.31905    36638.639 
   23200    302.82436   -1235.2755    335.94438    459.17506    681.71105    36638.639 
   23300    297.06957   -1217.1325    329.12215    444.67912     34.50172    36638.639 
   23400    302.69989   -1265.5725    324.13674    416.51197    476.38261    36638.639 
   23500    293.36899   -1290.3179     311.8755    337.64586    447.11442    36638.639 
   23600    299.80328   -1245.6701    336.39865    435.68178    980.78443    36638.639 
   23700    293.55739   -1240.0606    340.16577    417.03862    657.60722    36638.639 
   23800    291.51486   -1257.1393    322.77076    373.40188    212.34553    36638.639 
   23900     298.0421   -1266.6244    317.41225    387.84022   -62.141284    36638.639 
   24000    304.71609   -1274.6909    317.67669    409.97847    157.48661    36638.639 
   24100    292.17911   -1290.6385    319.59395    339.70573   -37.192547    36638.639 
   24200    302.02092   -1255.1887    336.21491      435.928    621.19167    36638.639 
   24300    292.37596   -1267.4358    348.32233    392.51992    203.04276    36638.639 
   24400    307.49555   -1232.4457    327.60975    474.62569    583.29343    36638.639 
   24500     295.9857   -1247.6107    332.64239    412.85876    342.07179    36638.639 
   24600    306.65865   -1274.7981    329.39886    430.30795    382.27137    36638.639 
   24700     304.1254   -1267.4043    331.75218    428.69067    177.93582    36638.639 
   24800    301.29961   -1250.5673    317.15439    418.25305    568.46775    36638.639 
   24900    299.85531   -1254.6987    346.37706      436.865    295.19303    36638.639 
   25000    290.18807   -1201.7889    345.13507    445.16446    592.72973    36638.639 
   25100     295.5004   -1252.4595    345.45328    418.64372    460.50422    36638.639 
   25200    302.64808    -1246.689     336.7346    447.76089    813.70548    36638.639 
   25300    294.27253   -1231.8975    333.10986    421.35395    379.25808    36638.639 
   25400     301.1363   -1246.5926     331.0861    435.42687    964.86553    36638.639 
   25500    303.61601   -1226.5281    331.61958    467.14905     669.5326    36638.639 
   25600    295.63701   -1255.0545    338.22827    409.43663     536.6326    36638.639 
   25700    301.61351   -1271.1494     333.1497    415.07444    729.59151    36638.639 
   25800    299.55077   -1258.7388    335.84107    420.92274      278.255    36638.639 
   25900    297.70925   -1220.2319     347.0645    462.39178    345.98178    36638.639 
   26000    297.86227   -1236.1393    327.60326    427.70961    340.88001    36638.639 
   26100    295.10661   -1240.0969    344.31652    428.10303    42.647029    36638.639 
   26200    299.40165   -1225.4158    313.93781    431.67353    181.00673    36638.639 
   26300    293.37696   -1255.8714    335.39001    395.64265    463.34448    36638.639 
   26400    294.62444   -1258.1186    344.10501    407.70671    302.20347    36638.639 
   26500    292.42901   -1301.7125    312.27544    322.43429   -134.94459    36638.639 
   26600    302.68606   -1291.8852    336.16516    402.16567    109.15773    36638.639 
   26700    295.75228    -1275.778    334.53786    385.53983   -348.50069    36638.639 
   26800    299.11182   -1273.6335    336.44916    404.66692   -167.64595    36638.639 
   26900    314.82033   -1233.8341    347.20522     525.6926   -231.15044    36638.639 
   27000    298.46903   -1247.3126    358.61997    450.27501    234.14932    36638.639 
   27100    302.94643   -1275.4741    324.86122    408.44087   -13.885176    36638.639 
   27200    292.22566   -1269.9937    338.32279    379.28821    262.02985    36638.639 
   27300    300.33419   -1312.6128    325.26957    359.99175   -528.37049    36638.639 
   27400    306.45295   -1299.3495    351.23861    426.67351   -257.36927    36638.639 
   27500    292.90666   -1282.4626    344.70981    376.26138   -576.51993    36638.639 
   27600    293.18868   -1268.8793    343.97834    390.37839   -221.73198    36638.639 
   27700    298.61861   -1281.1755    347.35666    405.81978    80.082788    36638.639 
   27800    302.23625      -1270.4    342.09858    427.56645   -91.175356    36638.639 
   27900    304.10415   -1267.5071    328.97092    425.71129    474.64061    36638.639 
   28000    299.70194   -1270.4704    349.12905    423.15721    285.41246    36638.639 
   28100    304.90092   -1269.1004    348.90187    447.62332    334.80684    36638.639 
   28200    305.65565   -1285.1009    356.76033     442.8671    540.91549    36638.639 
   28300    301.98069   -1275.7615    327.75415    406.71404    611.28453    36638.639 
   28400     298.5839   -1320.3712    334.41195    353.52376    836.84491    36638.639 
   28500    298.82618   -1326.2281     339.3469    353.68862    93.307294    36638.639 
   28600    296.54364   -1279.5476    344.19135    394.97385    105.33635    36638.639 
   28700    303.12595   -1294.8623    356.45447    421.45133    73.611437    36638.639 
   28800    298.78117   -1260.9974    345.85452    425.22502    661.61972    36638.639 
   28900    305.48656   -1283.9038    328.30991    414.85517    148.54825    36638.639 
   29000    284.95555   -1233.9057    340.97715      385.416    12.420278    36638.639 
   29100    299.42996   -1242.6204    338.29065    438.94877    462.81925    36638.639 
   29200    305.51569   -1274.4976    335.62464    431.70685    389.76922    36638.639 
   29300    301.07265   -1245.8379    342.09159     446.9015    376.98604    36638.639 
   29400    303.19503   -1284.7537    358.08283    433.49813    575.67278    36638.639 
   29500     308.2251   -1283.5666     356.6232    455.79114    622.42316    36638.639 
   29600    309.07541    -1287.445    357.11947     456.2236    904.83311    36638.639 
   29700    306.86103   -1314.8039    358.88261    420.69381    874.34157    36638.639 
   29800    295.12277   -1302.5465    349.66693    371.07631    1020.5779    36638.639 
   29900    305.21831   -1266.0409    336.91835    440.12312    857.34629    36638.639 
   30000    294.48955    -1310.527    340.05509    350.64331    953.84228    36638.639 
   30100    295.97677   -1346.2409    329.50479    311.05087    449.49064    36638.639 
   30200    298.26442   -1323.4873    347.24766    361.81011    154.81915    36638.639 
   30300    296.95131   -1278.2514    360.58601    414.49352    50.913665    36638.639 
   30400    298.58571   -1326.7984    350.90501    363.59762    85.591431    36638.639 
   30500    302.06275   -1261.1512    343.37669    437.31497   -399.44762    36638.639 
   30600    310.16675   -1302.7362    346.04546    434.75429   -482.77728    36638.639 
   30700    314.93209   -1276.0882     348.3524    485.08714    219.27095    36638.639 
   30800    298.47805   -1288.2763    345.15823    395.89003    224.50859    36638.639 
   30900    305.13897   -1313.2721    344.76056    400.37821    41.519537    36638.639 
   31000    293.71648   -1310.0324    343.95022    351.56493   -183.24851    36638.639 
   31100    298.26186   -1280.1814    348.26445    406.12129   -142.26897    36638.639 
   31200    288.23617   -1308.6174     338.1927    322.63711    571.28433    36638.639 
   31300      290.436   -1294.7792      349.456    357.60728    209.25821    36638.639 
   31400    299.17817   -1312.2854    325.50494    355.36849    374.69871    36638.639 
   31500    296.06013    -1322.487    337.17799    342.85198    120.64166    36638.639 
   31600    299.03318   -1325.6143    331.86936    347.75352   -212.96521    36638.639 
   31700    296.73536   -1338.0029    349.73919     342.9265    359.44761    36638.639 
   31800    305.35644   -1337.1863    343.92667    376.60575    324.09975    36638.639 
   31900    295.49513   -1307.5735    361.07164     379.1245    8.4268601    36638.639 
   32000    305.31939   -1326.3556    355.72934    399.07289    138.59007    36638.639 
   32100    296.16135   -1269.9332     385.6587    444.34057    284.17515    36638.639 
   32200    303.10534   -1279.1188    382.73248    463.38035    752.27372    36638.639 
   32300    304.06535   -1290.7048    377.20885    450.57743    393.32043    36638.639 
   32400    306.72864   -1309.9473    357.96016    424.03405    602.38413    36638.639 
   32500    311.24053   -1313.9008    340.83848    423.19973    68.925723    36638.639 
   32600    297.70259    -1333.333    337.04969      339.246   -48.885922    36638.639 
   32700    294.12813   -1361.0479    351.57675    310.02264   -103.46978    36638.639 
   32800    298.22307   -1329.5323    344.65319    352.98508    70.508872    36638.639 
   32900    310.35377   -1347.2083    341.95259    387.02826    747.87973    36638.639 
   33000    305.37722     -1337.94    344.51528    376.53389    535.36016    36638.639 
   33100    305.32565   -1333.4871    348.47173    384.71188    658.07494    36638.639 
   33200    308.23323   -1322.2471    363.82461    424.34848    566.89338    36638.639 
   33300    307.85515   -1354.3533    358.66046    385.38201    8.8129341    36638.639 
   33400    293.03354   -1319.8805    327.55295    322.25581   -67.275853    36638.639 
   33500    297.18201   -1322.8091    381.00692    391.39171     283.8706    36638.639 
   33600    311.28861   -1320.2386    355.33554     431.5747    461.59529    36638.639 
   33700    304.74202   -1309.1559    363.30327    421.25638    422.61255    36638.639 
   33800    297.06159   -1363.9106     333.8458    302.58889    367.16608    36638.639 
   33900    302.17286   -1371.7409    344.21012     328.0527   -148.98236    36638.639 
   34000    308.64977   -1343.2888    345.18235    386.53322    165.69915    36638.639 
   34100    305.49722   -1326.1802    360.13459    404.45133    182.81746    36638.639 
   34200    293.13512   -1305.4899    351.75699    361.30619    179.08934    36638.639 
   34300    297.17633   -1304.0743    366.20643    395.30056    139.38494    36638.639 
   34400    299.58851   -1322.7008    350.17491    371.46387    349.81412    36638.639 
   34500    294.16826   -1328.7439    349.79968    340.72961    76.472968    36638.639 
   34600     294.1845   -1319.2714    348.64531    349.12067   -99.358451    36638.639 
   34700    303.50673   -1334.5185    364.33277    391.38162    425.79435    36638.639 
   34800      293.117   -1343.3973    367.76573    339.32619    206.71368    36638.639 
   34900    293.47421   -1343.3413    376.70026    349.91923    304.10122    36638.639 
   35000    302.30357   -1352.6178     355.5882    359.14025    431.00464    36638.639 
   35100    296.60181   -1399.4991    366.33968     297.4316      541.843    36638.639 
   35200    298.56191   -1367.3646    369.03088    341.05056    654.97339    36638.639 
   35300    305.36792   -1391.4292    354.67503     333.1627    264.71703    36638.639 
   35400    298.01901   -1329.1247    355.03834    362.86245    258.27995    36638.639 
   35500    294.53276   -1361.3304    366.87136    326.84999    182.40191    36638.639 
   35600    298.93957   -1371.8664    364.64011    333.85223   -119.29592    36638.639 
   35700    310.93836    -1363.877    368.76212    399.79165    552.86113    36638.639 
   35800    305.50484   -1358.8348    352.38344    364.07979   -244.93629    36638.639 
   35900    298.85281   -1350.4265    357.49582    347.75868   -355.18141    36638.639 
   36000    285.26863   -1362.8364    349.49599    266.40867    -369.5291    36638.639 
   36100    297.45409   -1348.9752    380.37694    365.81626   -405.03666    36638.639 
   36200    304.84079   -1314.5162    373.54484    426.58073    107.06435    36638.639 
   36300    304.00356   -1353.5264    373.81534    384.08516    398.50839    36638.639 
   36400    293.18667   -1377.2707    381.50568    319.50529     1021.858    36638.639 
   36500    299.12981   -1383.4099    353.11011    311.63214    552.22981    36638.639 
   36600    296.77516    -1421.407    354.89027    264.85201    714.58609    36638.639 
   36700    295.89517   -1402.1129    356.46109    281.76918    264.70263    36638.639 
   36800    291.77279   -1385.3847    353.48688    277.02965    232.10378    36638.639 
   36900    291.13206    -1423.529    359.55875     242.0828    66.533079    36638.639 
   37000    305.56515   -1367.1516    361.58904    365.23906    448.76783    36638.639 
   37100    287.74028   -1373.3299    373.27569    290.78298   -64.549026    36638.639 
   37200    294.51677    -1362.879    371.24004     329.5983    -539.7347    36638.639 
   37300    299.58814   -1345.0577    349.07475     348.0051   -273.97215    36638.639 
   37400    303.16015    -1360.912     351.8862    350.98681    380.43998    36638.639 
   37500    303.90613   -1349.8308    367.38329    380.91157    742.62049    36638.639 
   37600     291.2073   -1382.8849    388.05093     311.5567    159.09253    36638.639 
   37700    302.64869   -1335.8884    372.31918    394.14881    447.20473    36638.639 
   37800    294.43479   -1401.9877    375.57125    294.45308    48.181622    36638.639 
   37900    293.75018   -1367.0417     392.6581    343.41475    79.110308    36638.639 
   38000    305.31139   -1365.3003    361.46675    365.82974   -24.200078    36638.639 
   38100    302.28825   -1339.8171    373.66891    389.95292    264.59532    36638.639 
   38200    301.12401   -1386.0125    362.21939    327.08511   -71.424272    36638.639 
   38300    302.63944   -1364.8136    372.26382    365.12679   -26.775541    36638.639 
   38400     290.8743   -1353.3585    364.67285    316.21108   -181.10961    36638.639 
   38500    297.59224   -1342.7721    375.08325    367.34539   -274.84686    36638.639 
   38600     300.1795   -1339.5331    387.67472     394.7826   -486.20531    36638.639 
   38700    300.83611   -1331.1089    375.69143    394.16917   -212.33886    36638.639 
   38800    290.31034   -1312.2634    379.83091    369.93423   -27.941788    36638.639 
   38900    303.84194   -1338.9805    368.23103    392.32169   -166.38616    36638.639 
   39000    303.41801    -1356.623    346.17598    350.72232    356.36976    36638.639 
   39100    295.40087   -1320.6806     364.6772    369.20008    496.37349    36638.639 
   39200    293.22439   -1333.2839    369.80682    351.96241    345.94402    36638.639 
   39300    301.53513   -1383.6925    347.20533    316.23538    379.67801    36638.639 
   39400    284.32664   -1343.0403    374.76361    307.24647    358.03289    36638.639 
   39500    297.39309   -1362.7561    362.77787    334.16256    849.31307    36638.639 
   39600    297.89146   -1375.0858    370.96211    332.25289    1172.7601    36638.639 
   39700    302.53023   -1340.2792    376.68204    393.58945    995.08825    36638.639 
   39800    298.90214   -1397.6511     377.2638    320.52325    635.21296    36638.639 
   39900    289.28715   -1373.2047    375.22938     299.8013    781.58855    36638.639 
   40000    294.63279   -1358.6619    392.87771    355.97363    519.64638    36638.639 
   40100    303.19758     -1364.16    361.92383    357.94429    248.31701    36638.639 
   40200    307.26643   -1349.6035    362.56587    391.39617    741.81454    36638.639 
   40300    297.39688   -1347.8434    365.36093     351.6754    706.84924    36638.639 
   40400    305.06613   -1322.0571     368.6535    415.15936    627.60471    36638.639 
   40500     291.9828   -1367.5212    351.93421    294.28264    675.25749    36638.639 
   40600    299.57475   -1372.1259    366.14888      337.951    411.05734    36638.639 
   40700    293.40462   -1370.8784     370.9438     316.3135    216.73088    36638.639 
   40800    295.85381   -1347.6352     367.7612     347.3614    109.02682    36638.639 
   40900    301.40792   -1348.2262    366.31708    370.24266   -339.97241    36638.639 
   41000    307.97801   -1363.3061    338.05411    356.37401    342.93905    36638.639 
   41100    294.77873   -1334.5727    375.63185    363.47168    308.28702    36638.639 
   41200    294.80022   -1322.2155    363.97878    364.27223   -140.91551    36638.639 
   41300     296.2052   -1338.5682    349.85015    340.09379    506.88592    36638.639 
   41400    315.23551   -1358.8207    390.34437    445.70776    -137.5435    36638.639 
   41500    298.05902   -1307.4125    395.78977    425.50557     164.9835    36638.639 
   41600    301.82125   -1330.7272    376.54025     399.8191   -39.847454    36638.639 
   41700    306.18321   -1285.9349    402.92529    490.56479    65.629527    36638.639 
   41800    300.47044   -1324.9535    400.60317    423.59581    322.99336    36638.639 
   41900    305.64139   -1338.4687    388.54311    421.21812    471.88595    36638.639 
   42000    309.71375   -1362.9831    381.23723    407.66689    712.48267    36638.639 
   42100    295.68893    -1366.137     360.8649    321.22364    594.38894    36638.639 
   42200    299.98058   -1343.7002    375.47549    377.52395    545.09308    36638.639 
   42300    303.30191   -1385.9616    391.77885    366.46575    637.43033    36638.639 
   42400    304.53682   -1357.1941    371.77785    380.77217    394.85157    36638.639 
   42500    292.81654   -1343.0233    389.60325    360.18982    193.06298    36638.639 
   42600    306.84796     -1377.66    384.73786    383.63439    128.12073    36638.639 
   42700    303.77825   -1377.1027    386.57836    372.26103   -55.047354    36638.639 
   42800    300.37672   -1295.4791    390.84302     442.8897   -275.09556    36638.639 
   42900    287.89595   -1276.3733    389.94901    405.11125    -362.1521    36638.639 
   43000    301.79884   -1266.8881    364.34002    451.35746    -246.7822    36638.639 
   43100    292.60009   -1266.6488    386.73443    432.72447   -408.43571    36638.639 
   43200    304.38359   -1269.3195    385.82477    482.00636   -220.13994    36638.639 
   43300    297.77783   -1311.7166    398.34255    422.49281   -166.11602    36638.639 
   43400    303.69158   -1323.8894    387.88105    426.38827    266.36993    36638.639 
   43500    300.66392   -1364.2528    388.27068    372.83201   -402.65669    36638.639 
   43600    305.47006   -1366.4988    400.65153    404.52781   -102.38947    36638.639 
   43700    294.04491   -1382.9472    399.05144    335.22473   -301.78158    36638.639 
   43800    299.74668   -1323.8544    415.46727    436.31215     293.6517    36638.639 
   43900    292.80214   -1298.4788    385.27205    400.33849   -243.74584    36638.639 
   44000    311.25603   -1313.4324    382.90464    465.80389   -72.402402    36638.639 
   44100     291.7376   -1321.7104    408.98287    396.04209   -7.8357746    36638.639 
   44200    297.17512   -1298.8216    390.10038    424.44174    73.164609    36638.639 
   44300    306.44465   -1326.8176     394.4898    442.41939    147.64085    36638.639 
   44400    306.75185   -1311.4832    391.95465    456.59684    421.20057    36638.639 
   44500    289.09039   -1339.8234    392.47279    349.54328    588.96623    36638.639 
   44600    307.40416   -1340.0411    375.48217    414.49279    197.15649    36638.639 
   44700    297.97819   -1367.1327    404.44259    374.07557    682.31969    36638.639 
   44800    295.75031   -1345.7852    366.80775    347.79364    553.28367    36638.639 
   44900    296.14975   -1356.9452    368.98699    340.60486    194.14336    36638.639 
   45000    293.01912   -1378.1002    371.29429    307.71276   -10.891139    36638.639 
   45100    297.48264   -1348.3505    378.86095    365.05296    384.00792    36638.639 
   45200    293.72056   -1336.7403    381.48975    362.41484   -419.32635    36638.639 
   45300    303.18348   -1327.0587    380.53555    413.59407   -513.54292    36638.639 
   45400    306.19446   -1381.9212    389.29745    381.00109    31.105787    36638.639 
   45500     303.3243   -1374.7957      366.687    352.64022   -48.070849    36638.639 
   45600    293.56989   -1376.4242    371.14773    311.71303    567.78705    36638.639 
   45700    307.35251   -1345.1622    397.70245    431.36022    378.25245    36638.639 
   45800    294.37492   -1327.0246    405.87746    399.45382    521.32464    36638.639 
   45900    307.24525   -1331.0888    378.28294    425.53296    987.26506    36638.639 
   46000    296.79776   -1359.5956      376.771    348.64549    469.09295    36638.639 
   46100    307.20265   -1392.8145    382.08455    367.41767    44.347304    36638.639 
   46200    302.65086   -1391.6725    373.23546    339.29074    560.50043    36638.639 
   46300    292.43352   -1333.2103    393.96437    372.64564    160.83803    36638.639 
   46400    292.79179    -1361.344    391.06995    343.22483    193.50805    36638.639 
   46500     303.5948    -1371.039    385.80366    376.72713    321.17413    36638.639 
   46600    304.17637   -1348.5831    381.83652    397.82485   -39.007342    36638.639 
   46700    301.02344   -1341.5688    398.14674    407.00498    171.78884    36638.639 
   46800    300.70724   -1364.3728    386.39679    371.03248     265.1548    36638.639 
   46900    301.54832   -1358.1404     390.3528    384.99409    964.02118    36638.639 
   47000    293.43652   -1385.3155    399.17539    330.25108    245.64791    36638.639 
   47100    295.63167   -1348.7453    392.51445    370.00799     25.18831    36638.639 
   47200    296.33841   -1338.9954    372.48875    362.90276    149.08338    36638.639 
   47300    296.94457   -1357.9806    394.43077    368.57892     817.0069    36638.639 
   47400    289.86193    -1429.742    360.38042    230.99358    736.71253    36638.639 
   47500    297.38571   -1386.5265    362.51298    310.09419    751.15733    36638.639 
   47600    292.82252   -1375.3014    382.58521    320.92051    278.01258    36638.639 
   47700    306.82239   -1333.4303    370.52183     413.5333    88.626377    36638.639 
   47800    302.57704   -1342.7763    364.67217    379.29252    325.79599    36638.639 
   47900    299.47201    -1380.891    363.77597     326.3521    750.19911    36638.639 
   48000    298.06919   -1370.9444    395.57388     361.8034    513.82677    36638.639 
   48100    303.69654   -1413.3615    395.49486     344.5522    830.90136    36638.639 
   48200    296.33756   -1388.4993    398.18314    339.08949    1093.1816    36638.639 
   48300    302.18763   -1399.4992    395.21654    351.36705    68.409382    36638.639 
   48400    299.51887   -1397.9163    370.99232     316.7534    217.93973    36638.639 
   48500    298.66856   -1422.1519    386.11127    303.82206     64.71389    36638.639 
   48600     293.7192   -1330.8877    407.04999    393.82159    -72.74346    36638.639 
   48700    312.66649   -1328.8303    397.74407    471.57284    58.238461    36638.639 
   48800    298.85394   -1325.1536    388.11198    403.65273   -553.66318    36638.639 
   48900    287.57499   -1313.9945    387.70779    363.80901     5.419243    36638.639 
   49000    290.85673   -1338.4913    402.01493    368.34153     482.5846    36638.639 
   49100    285.32319   -1322.4051    430.29965    387.88837   -64.583376    36638.639 
   49200    297.73943   -1352.0433    399.13393    382.78517    677.57422    36638.639 
   49300    294.15458   -1341.8843    388.92591    366.65411    559.74826    36638.639 
   49400    305.93329   -1335.2465    394.74977     431.9565    1368.2335    36638.639 
   49500    297.02459   -1348.5827    379.12615     363.0312     612.2376    36638.639 
   49600     296.5071   -1376.6306    376.72007    330.25562    382.92906    36638.639 
   49700     270.6711   -1362.5551    392.15114    243.85882    542.93866    36638.639 
   49800    303.34602   -1357.2399     402.0205    405.62702    443.73026    36638.639 
   49900    302.89911   -1323.0971    409.79839    445.54276    525.79243    36638.639 
   50000    273.48275   -1292.6444    415.08213    349.31395    156.98298    36638.639 
   50100    302.49805   -1325.0299    403.89261    435.90503    400.42823    36638.639 
   50200    309.55079    -1329.877    408.50313    467.30782      661.214    36638.639 
   50300    303.78525   -1334.0443    414.46995    443.24246    521.05012    36638.639 
   50400    301.17704   -1346.2447    399.49075    404.36213     265.7002    36638.639 
   50500    290.79621   -1340.6429    392.50268    356.40627    77.980558    36638.639 
   50600     297.6537   -1364.3169    411.62712    382.62012   -359.16678    36638.639 
   50700     285.1688   -1378.0306    384.69109    285.96168   -128.43566    36638.639 
   50800    301.96148    -1363.299    413.54768    404.88385    213.58099    36638.639 
   50900    296.62445   -1444.2733     374.5141    260.93343    123.28311    36638.639 
   51000    300.12058   -1388.6118    381.35498    339.11988    675.18412    36638.639 
   51100    300.69046   -1406.3693     417.5881    360.15207    371.05033    36638.639 
   51200    294.65053   -1414.0501    422.73388    330.52116    213.52962    36638.639 
   51300    302.90683   -1407.4388    395.53866    346.97594   -101.65964    36638.639 
   51400    298.74891   -1402.0096     382.7695    320.98312    22.016459    36638.639 
   51500    300.01183    -1465.738    391.77424    271.92508     197.4911    36638.639 
   51600     305.0146   -1430.0706    401.73028    339.99152    595.20359    36638.639 
   51700    308.87359   -1465.8264    381.53076     301.3481    160.56218    36638.639 
   51800     307.0857   -1412.7062    383.44089    348.35778    137.38935    36638.639 
   51900    301.24513   -1396.1644    392.48745    347.74455   -5.3899881    36638.639 
   52000    311.56382    -1422.103    414.81488    390.42431    196.64775    36638.639 
   52100    296.53219     -1403.41     406.3955    333.26423    214.37898    36638.639 
   52200    305.69253   -1397.5942    405.38478    379.16368   -430.52338    36638.639 
   52300    300.41609   -1366.9386    402.68969     383.4535   -5.5640683    36638.639 
   52400    297.27379   -1373.5805    426.49523    386.52039    64.793089    36638.639 
   52500    291.96905   -1401.3226    428.97709    337.46241   -47.557635    36638.639 
   52600    303.02673   -1385.6631    404.04438    377.79532   -179.11659    36638.639 
   52700    305.72105   -1387.6623    413.65179    397.49056   -169.25469    36638.639 
   52800    308.49693   -1356.8744    392.91644    419.99608   -32.568698    36638.639 
   52900     297.8764   -1365.8258    416.04283    386.52609    183.99343    36638.639 
   53000    300.89077   -1392.6255    395.18667    352.39307   -332.71706    36638.639 
   53100    286.64433    -1378.853    410.15975    317.22737    133.47528    36638.639 
   53200    304.17219   -1358.8867    410.28236    415.94839    266.80192    36638.639 
   53300     288.0575   -1386.9077    411.06556    316.41813    337.48313    36638.639 
   53400    301.83003   -1429.8349    405.23128    329.44188   -69.520162    36638.639 
   53500    307.15119   -1454.8413    397.15857    320.23407     157.3617    36638.639 
   53600    299.24432   -1402.2353    418.25267    358.46307    285.98184    36638.639 
   53700    296.33515   -1416.3065     405.3648    318.45313     323.3452    36638.639 
   53800    299.34485   -1422.7029    391.47614    311.66992    244.67848    36638.639 
   53900     292.2272    -1415.431    400.93083     296.4659   -9.4892879    36638.639 
   54000    298.45119   -1405.8393    405.06593    338.11418   -510.56861    36638.639 
   54100    314.29231   -1398.5362    384.65161    396.06814    202.21476    36638.639 
   54200    306.26959   -1404.8637    398.55203    367.65021    522.94225    36638.639 
   54300    301.31865   -1395.8997    413.94433    369.79596    464.93204    36638.639 
   54400    293.55084    -1435.195    432.58777    314.29679    205.83959    36638.639 
   54500    294.42417   -1403.8567    415.90633    332.87157     757.8322    36638.639 
   54600    294.63971   -1418.7365    438.77714    341.82944    750.23154    36638.639 
   54700    286.49257   -1416.6623    415.68628    284.26377    561.37904    36638.639 
   54800    299.54928   -1400.0215    417.79016    361.58244    289.07136    36638.639 
   54900    294.92955   -1451.7073    393.61791    264.99969    511.54461    36638.639 
   55000    301.26203   -1455.0464    408.38435    304.83534    -56.05384    36638.639 
   55100    297.67113   -1409.0806    428.77694    355.08449   -209.55668    36638.639 
   55200    308.90467   -1438.5848     407.3609    354.55931   -285.15285    36638.639 
   55300    299.57287   -1421.7565    390.38246    312.54547   -90.474108    36638.639 
   55400     303.4713   -1453.1966    381.94763    290.15947   -243.22731    36638.639 
   55500    297.42523   -1364.7449    401.85198    371.39207    145.89795    36638.639 
   55600    296.11965    -1362.501    389.00604    354.93304     72.22456    36638.639 
   55700    287.47057    -1369.261    414.77479    335.14097    60.480191    36638.639 
   55800    307.32705   -1383.0281    401.77358     397.4512   -96.767788    36638.639 
   55900    307.86707   -1386.3735    384.68179     379.4366    19.764605    36638.639 
   56000    290.92888   -1389.5782    394.05818    309.62153   -116.86663    36638.639 
   56100    298.98377   -1417.1407    375.86301    299.99915   -334.39128    36638.639 
   56200    309.14696    -1403.356     393.6226     377.1367   -408.45436    36638.639 
   56300    298.63316   -1365.0125    396.50107    371.19246   -300.81936    36638.639 
   56400    301.73419   -1402.6637     442.0968    393.04858   -726.19296    36638.639 
   56500    309.71488   -1354.1622    409.24515    444.50077   -50.149162    36638.639 
   56600    295.30184   -1403.3935     384.0381    305.40385   -213.07385    36638.639 
   56700    298.06791   -1380.7801    394.84832    351.23633    30.429494    36638.639 
   56800    301.58496   -1391.4667     404.3784    365.85782   -248.98408    36638.639 
   56900    315.18326   -1354.3723    424.15103    483.72838    544.30067    36638.639 
   57000    302.55873   -1377.6323    434.30677      413.989    469.76174    36638.639 
   57100     296.2387   -1374.0234    390.16876    345.10743     15.58629    36638.639 
   57200     308.7059   -1399.8504    400.67776    385.71886   -146.90656    36638.639 
   57300    291.37265    -1419.775     417.1003    304.45776   -240.05506    36638.639 
   57400    306.66117    -1414.641    417.44494    378.52244   -522.89125    36638.639 
   57500    302.21123   -1457.7862    408.53409    306.50349   -273.56055    36638.639 
   57600    302.26827   -1479.8973    406.57827    282.69241   -193.09571    36638.639 
   57700    288.59532   -1437.9131    423.63678    280.39661   -95.743191    36638.639 
   57800    305.92451   -1464.7769    405.37296    313.00988    77.598619    36638.639 
   57900    302.76539   -1424.6978    410.48322    344.02703    428.83527    36638.639 
   58000    308.36145   -1412.9823    418.00574    388.36969     190.0643    36638.639 
   58100    305.20661   -1388.6905    394.54322    375.04591    185.13447    36638.639 
   58200    299.41327   -1425.7515    422.14235    339.59442    -416.7101    36638.639 
   58300    293.36192   -1410.7164    401.07891    306.41901   -32.738197    36638.639 
   58400    306.30102   -1399.0749    422.17411    397.20207   -149.47453    36638.639 
   58500    298.69591   -1383.2502    408.56051    365.29572   -519.70028    36638.639 
   58600    301.58192    -1464.462    403.92052    292.39097    173.94932    36638.639 
   58700     294.7675    -1434.166    409.19499    297.39107    517.95076    36638.639 
   58800    294.52151   -1411.4439    413.77639    323.59109    162.36306    36638.639 
   58900    316.09058    -1420.496    403.62768    401.15163    473.01933    36638.639 
   59000    304.30153   -1427.9707     414.4743    351.63653    560.46773    36638.639 
   59100    307.13266   -1418.6353     420.4759    379.67437    91.181953    36638.639 
   59200    286.42866   -1421.2024    425.90372     289.6544   -216.70937    36638.639 
   59300    302.76923   -1453.1806    417.25669    322.33495     106.1883    36638.639 
   59400    295.32253   -1386.3401     415.1896    353.70157   -783.39844    36638.639 
   59500    297.03426   -1395.4799    415.87564    352.92681   -124.00126    36638.639 
   59600    298.90807   -1402.3008     385.3479    323.98427   -25.533416    36638.639 
   59700    293.10987   -1377.3301    424.10931    361.70498    293.25579    36638.639 
   59800     297.2751   -1395.9069    401.67356     339.3782    44.853467    36638.639 
   59900    308.58509   -1376.1132    417.29179      425.528    167.02877    36638.639 
   60000    295.44034   -1411.4642    429.47486    343.39127    322.62096    36638.639 
   60100    308.82929   -1378.9479      399.777    406.27404    968.00337    36638.639 
   60200    289.26436   -1415.4714    404.15397    286.35694    440.50294    36638.639 
   60300    302.13556   -1371.7083    422.72472    406.43252    239.36144    36638.639 
   60400    313.12421   -1365.9164    408.22842    447.02458     170.6394    36638.639 
   60500    297.85919   -1406.7067    419.67502    349.20011    38.346912    36638.639 
   60600    294.81513   -1407.6616    401.00268    315.91685    128.50088    36638.639 
   60700    310.64798    -1406.547     384.8396     371.8964   -412.36748    36638.639 
   60800    306.69302   -1435.6409    410.94914    351.16968    306.26598    36638.639 
   60900    302.77228   -1432.7541    406.86866    332.38709   -580.03644    36638.639 
   61000    300.32016   -1460.8716    433.72969     320.1301   -366.72264    36638.639 
   61100    300.79644   -1448.6547    377.88995    278.64389    293.38842    36638.639 
   61200    298.99922   -1403.9148    415.66346     353.0948   -38.862446    36638.639 
   61300     296.6778   -1383.3864    400.09688     347.6424     72.26763    36638.639 
   61400    304.54748   -1370.1498    421.63628    417.72276    127.12226    36638.639 
   61500    291.67536   -1430.2674    394.77285    272.99587    183.73516    36638.639 
   61600    297.25506   -1392.1392    397.24829     338.6307    508.12393    36638.639 
   61700    292.82965   -1371.8458    415.98282    357.80575    311.82499    36638.639 
   61800    307.47956    -1374.815    426.57986    431.15484    20.492412    36638.639 
   61900    288.16653    -1405.862    425.28612    312.17353   -165.54931    36638.639 
   62000     303.9334   -1405.9031    441.67833    399.25668   -728.01584    36638.639 
   62100    290.56279   -1359.6111    393.31102    337.19926   -374.65371    36638.639 
   62200    300.67404   -1437.2462    401.89316    313.50656    -24.91115    36638.639 
   62300    305.52188   -1438.8143    408.19348    339.98668    10.373374    36638.639 
   62400    301.05056   -1423.3114    409.83912    337.07646    71.481969    36638.639 
   62500    294.29448    -1423.074    409.94497    307.11109    81.589954    36638.639 
   62600    300.65036   -1440.7979     418.6552    326.61066    183.39266    36638.639 
   62700    298.51924    -1453.964    401.30847    286.53729     666.4635    36638.639 
   62800    291.93847   -1475.0155    405.71229    240.36753     630.3844    36638.639 
   62900    292.29527   -1457.5177    412.46733    266.22098    217.19961    36638.639 
   63000     291.8696   -1425.2598    404.93442    289.03645    225.40536    36638.639 
   63100     293.5191    -1431.763    398.25195    283.25061    480.98815    36638.639 
   63200    306.43891   -1426.5073    425.84827    374.06244    345.20149    36638.639 
   63300    295.73595   -1409.5876     410.6423    327.76142    797.47538    36638.639 
   63400    310.47524   -1396.2986    410.01698    406.54735    518.88625    36638.639 
   63500    292.96199   -1416.1378    414.73944    312.86397   -116.19537    36638.639 
   63600    298.27421   -1428.7162     405.2558    314.63322    54.968414    36638.639 
   63700    299.74809   -1373.3995    405.50876    376.81487    -672.0291    36638.639 
   63800    296.88342   -1401.2399    398.22834    328.84282   -193.20396    36638.639 
   63900    307.47726   -1388.1119    433.88349    425.15125    49.574976    36638.639 
   64000    300.03182   -1368.9214    431.27499    408.33207    367.36695    36638.639 
   64100    293.75553   -1398.8971     428.0789    347.00406    554.86935    36638.639 
   64200    297.49671   -1415.4613    399.34164    318.48603    -494.8718    36638.639 
   64300    302.59466   -1428.9471    406.51275     335.0413   -282.52013    36638.639 
   64400    293.21688   -1399.7054    417.62501    333.32552    -244.3277    36638.639 
   64500    294.09728     -1411.05    417.22169    325.52716   -454.31219    36638.639 
   64600    304.49995   -1411.3585    408.43608    363.10056   -176.06571    36638.639 
   64700    294.74157   -1401.7587    429.76243    350.24949   -322.52208    36638.639 
   64800    295.52575   -1367.4408    410.61969    368.94264   -489.07647    36638.639 
   64900    300.47566   -1361.5558    395.66523    382.07904   -222.11994    36638.639 
   65000    302.91148    -1392.678    419.85167     386.0707    285.26461    36638.639 
   65100    298.49546   -1364.8885     414.6355    388.83316   -452.48847    36638.639 
   65200    294.43917   -1448.0196    409.55985    282.42948   -611.72437    36638.639 
   65300    297.72161   -1434.4664    410.17058    311.31873   -255.21063    36638.639 
   65400    290.65836    -1422.184    385.33297    267.07696     256.6166    36638.639 
   65500    288.06004   -1431.2685    421.46235    282.46554   -354.66859    36638.639 
   65600    305.01187   -1382.9649    399.11385    384.46856   -361.82679    36638.639 
   65700    297.76939   -1417.3899    415.64132    334.08039   -23.359374    36638.639 
   65800     298.8155   -1410.0387    409.38869    339.87197   -485.44457    36638.639 
   65900    302.63055    -1433.166    412.18688    336.65754    43.697989    36638.639 
   66000    302.94204   -1388.1213    415.26652    386.17929    485.35679    36638.639 
   66100    296.19136   -1435.3594    423.76218    317.15255     89.12876    36638.639 
   66200    296.52234   -1395.9824    416.12602    350.37815   -76.887353    36638.639 
   66300    304.57393   -1409.9553    437.30675    393.70641   -37.991294    36638.639 
   66400    303.99576   -1428.5544    412.51812    347.72491    422.83691    36638.639 
   66500    296.34286   -1421.0273    427.65819    336.06031    759.43459    36638.639 
   66600    303.19193   -1420.2114    436.66395    376.60765    433.27446    36638.639 
   66700    300.59037   -1414.7505    447.26979     381.0035    648.99851    36638.639 
   66800     301.2263    -1450.084    398.71213    299.96514     540.2317    36638.639 
   66900      297.712   -1442.2467    405.57969    298.90446    568.20651    36638.639 
   67000    298.15621   -1452.1926     428.4621    313.83381    128.87771    36638.639 
   67100    304.11269   -1439.7398    425.33115    349.87711     322.4456    36638.639 
   67200    294.90466   -1443.5812    428.14781    307.54401    152.09212    36638.639 
   67300    305.45139   -1437.3885    413.44058    346.34336   -123.62788    36638.639 
   67400    289.41157   -1449.5537    428.89944    277.68051    232.05082    36638.639 
   67500    291.22652   -1443.9145     427.9287    290.49102    -232.0065    36638.639 
   67600    302.43641    -1407.346    430.41935     379.8391    306.19576    36638.639 
   67700     300.2668   -1406.4145    420.93701    361.55514    176.31631    36638.639 
   67800    300.08345   -1438.8003    423.07104    330.48079   -133.24793    36638.639 
   67900      293.706   -1420.6896    427.87943    324.78993   -130.61753    36638.639 
   68000    303.11539    -1455.281    392.94561    297.47641   -303.85408    36638.639 
   68100    297.65643   -1430.0285    426.27155    331.56525   -147.81656    36638.639 
   68200    307.06726   -1444.9623    427.91973    360.49771    -167.0074    36638.639 
   68300    293.22716   -1439.9459    406.06702    281.57309    44.793878    36638.639 
   68400    291.10512   -1458.8008    441.10062    288.23207    85.245165    36638.639 
   68500    289.18969   -1438.9127    428.89841    287.32514   -163.79914    36638.639 
   68600    307.34047   -1419.7482    428.39769    387.41544    577.52714    36638.639 
   68700    297.98464   -1404.8198    442.94492    374.91971    533.47084    36638.639 
   68800    297.99887   -1403.9131    433.69594    366.64129    355.51738    36638.639 
   68900    304.49564   -1404.5524    424.99653    386.44785    163.52426    36638.639 
   69000    303.16886   -1400.5904    440.80416    400.26534    290.68082    36638.639 
   69100     302.9229   -1448.5657    394.64747    305.02997    676.63993    36638.639 
   69200    302.83994   -1441.7424    436.34913     353.1828   -189.31692    36638.639 
   69300    295.58061   -1406.7984    439.58879    358.80024    208.86011    36638.639 
   69400    288.63428   -1483.5568    407.93137    219.22236    339.63121    36638.639 
   69500    292.80381   -1433.0474    437.80123    318.30661    400.89777    36638.639 
   69600     296.4701   -1475.0642    428.46767    283.40368    280.12672    36638.639 
   69700    301.81816   -1483.5713    396.45149    266.87239    597.50159    36638.639 
   69800     300.3337   -1432.8493    426.07337    340.55677     243.0462    36638.639 
   69900    294.74664   -1437.8442    427.09264    311.51698    142.08528    36638.639 
   70000    294.79037   -1446.7896    431.73598    307.41113    100.94696    36638.639 
   70100    294.62022   -1444.6274    415.95495    293.02898    209.46632    36638.639 
   70200     294.5689   -1442.4405    445.60426    324.63493    211.35454    36638.639 
   70300     294.2965   -1439.9605    450.05225    330.34088    138.16117    36638.639 
   70400    297.03623    -1435.141    451.45957    348.85844    242.13828    36638.639 
   70500    293.56325   -1367.3902    449.50916    399.07864    709.26645    36638.639 
   70600    291.25104   -1372.3399    453.06895    387.31593    256.28732    36638.639 
   70700    303.13257   -1413.9265    456.15884    402.12115    679.61909    36638.639 
   70800    297.21143   -1380.6196    454.11932    406.82564    545.14265    36638.639 
   70900    299.01114   -1396.1823    459.98138    405.19868    51.269349    36638.639 
   71000    299.82281   -1419.9047    413.72273    338.85889   -280.34926    36638.639 
   71100    288.24839   -1425.0458    441.06105    309.13191    437.49302    36638.639 
   71200    304.83676    -1397.543    444.05674    414.04778   -57.379404    36638.639 
   71300    303.58984   -1427.4584    412.18323    346.66506   -453.65194    36638.639 
   71400    301.51063   -1383.4267    435.32035    404.50625   -221.20871    36638.639 
   71500     304.6774   -1426.8606    447.87148    387.83005   -178.75875    36638.639 
   71600    306.89427   -1427.0846    439.69552    389.37515    651.60258    36638.639 
   71700    300.50244   -1379.3629    457.20301    425.92983    306.49978    36638.639 
   71800     299.3992   -1371.9626    435.02018    406.19805   -97.143437    36638.639 
   71900    308.62215   -1380.2278    432.40165    436.68954    38.383625    36638.639 
   72000    302.32297   -1383.2546    447.08214    420.08442   -220.86314    36638.639 
   72100     301.4833   -1369.8172    449.08999     431.7628    -432.1242    36638.639 
   72200    294.53467   -1367.9583     446.4627    399.82197   -630.66816    36638.639 
   72300    298.79461   -1402.2415    427.59946    365.78614    40.768037    36638.639 
   72400    293.98687    -1390.836    452.75417    380.77822   -385.66656    36638.639 
   72500    300.23908   -1387.3806    437.71131    397.23896   -1165.0558    36638.639 
   72600       297.58   -1407.0872    437.96695    365.85912   -395.01206    36638.639 
   72700    299.41903   -1430.7015    451.33983    363.86772     104.1408    36638.639 
   72800    310.76293   -1376.5852    443.98475    461.51909    -267.6826    36638.639 
   72900     298.8882     -1425.09    422.93887    338.69693   -494.24423    36638.639 
   73000    297.07786   -1380.7752    432.61102    384.56255    94.694685    36638.639 
   73100    301.29732   -1416.0455    422.05036    357.66053    703.91987    36638.639 
   73200    309.35008   -1401.8241    438.58768    424.54482    998.19193    36638.639 
   73300    302.88213   -1397.4378    447.71346    409.04095   -167.29375    36638.639 
   73400    298.12758   -1407.0726    429.77987    360.14317   -217.59602    36638.639 
   73500    287.52763   -1369.9056    455.46424    375.44187   -940.90104    36638.639 
   73600    296.17848   -1311.2619    444.85724    462.28725   -811.52468    36638.639 
   73700    288.35644   -1384.7881    440.89839    349.71163    -600.6643    36638.639 
   73800     315.2382     -1374.19    440.42349    480.42962   -542.07149    36638.639 
   73900    301.34884   -1348.4109    430.08535    433.56126   -175.04134    36638.639 
   74000    297.50411   -1324.0005    449.41165    460.05009   -62.747279    36638.639 
   74100    306.69668   -1355.4995    436.12118    456.49954   -325.66579    36638.639 
   74200    296.76373   -1364.0173    457.10417    424.40433   -190.99738    36638.639 
   74300    293.46666   -1394.5272    437.75476    359.75395   -180.18684    36638.639 
   74400    300.82789   -1419.0954    437.46129    367.91569   -97.273484    36638.639 
   74500    300.21938   -1404.3258    421.57156    364.06567   -34.278109    36638.639 
   74600    292.47358   -1475.8998    403.18863    239.36014   -334.34966    36638.639 
   74700    293.66345   -1524.6715    408.99088    201.72859   -212.72963    36638.639 
   74800    304.90227   -1506.9102     411.3176    272.23533   -65.754176    36638.639 
   74900    301.80887   -1457.6258    411.80536    308.13005   -175.31271    36638.639 
   75000    299.56738    -1475.475    432.12647     300.5464     48.65536    36638.639 
   75100    300.53252   -1437.8836    454.70575    365.04682    133.65743    36638.639 
   75200    297.93875   -1442.2959    444.64276    338.93561    52.485591    36638.639 
   75300    290.76247    -1476.608    449.38416     277.1712    249.18355    36638.639 
   75400    293.48773   -1420.0272    438.12006    334.71376    569.89457    36638.639 
   75500    297.13334   -1437.7573    427.21061    322.42888   -625.34067    36638.639 
   75600      308.723   -1458.5542    431.30005    357.71403    24.799173    36638.639 
   75700    294.15818   -1488.5393    434.21719    265.30656     359.5385    36638.639 
   75800    297.02327   -1465.3879    448.83319    315.92709    236.76422    36638.639 
   75900    295.97656   -1445.3805    415.53117    297.93676    221.84544    36638.639 
   76000    295.41291   -1447.2575    441.53904    319.53899    154.06062    36638.639 
   76100    298.35412   -1453.8557    428.43267    313.02913    175.32305    36638.639 
   76200     303.9525   -1457.7515    417.92246    323.73807   -111.06608    36638.639 
   76300    307.17125    -1448.808    454.04483     383.2437     3.471826    36638.639 
   76400    306.67007   -1441.3149    445.80544    380.24902   -198.81462    36638.639 
   76500    290.40774   -1464.4511    421.50562    259.85828    -22.21085    36638.639 
   76600    303.25195   -1429.0713    474.14603    405.49912    11.061805    36638.639 
   76700    287.07275    -1433.559    456.36162    310.64521   -14.694409    36638.639 
   76800    302.86758   -1410.4649    420.74751    368.98259    6.3573986    36638.639 
   76900    292.44013   -1395.1076    432.99385    349.80757    220.58921    36638.639 
   77000    300.82185    -1403.964    463.56563     409.1243    37.487702    36638.639 
   77100    299.04321   -1466.0564    438.56151    314.04863   -130.65013    36638.639 
   77200    301.78636   -1494.4307    414.98322    274.40214   -626.65201    36638.639 
   77300    294.60276   -1486.5407    436.88037    271.96273   -617.82794    36638.639 
   77400    302.43952   -1501.7668    434.16972    289.18268   -32.522422    36638.639 
   77500     300.4771   -1457.9997    452.26245    342.23883   -618.93196    36638.639 
   77600    302.33749    -1452.234    453.59295    357.68096   -139.59805    36638.639 
   77700    306.79262   -1427.6374    460.91752    409.58834    166.35146    36638.639 
   77800    297.75618   -1474.5806    427.24325    288.43239    161.01673    36638.639 
   77900    300.98996   -1498.1481    446.52173    298.65046    203.30276    36638.639 
   78000    298.84412   -1471.7601    430.69527    299.58544   -224.96567    36638.639 
   78100    303.51398   -1435.0109    425.52788     352.1169   -13.291659    36638.639 
   78200    301.88607    -1451.707    448.75191    351.34181    -133.7102    36638.639 
   78300    309.70052    -1501.676     450.6952    338.37261    688.17018    36638.639 
   78400    292.15157   -1500.7586    434.84911    244.71729    123.50726    36638.639 
   78500    290.79064   -1492.7579    424.63231    236.39583   -311.84601    36638.639 
   78600    304.83525   -1457.9964    427.61886    337.14977    480.96111    36638.639 
   78700    297.82096   -1441.8924    444.22366    338.39154    160.81888    36638.639 
   78800    308.08276   -1427.3293     433.9397    388.70636   -67.011103    36638.639 
   78900    300.15104   -1417.0092    438.49088    367.99503   -4.3237418    36638.639 
   79000    301.21038   -1403.4741    455.51533    403.30692   -94.668955    36638.639 
   79100    289.02274   -1415.3884    448.40656    329.60862    77.517063    36638.639 
   79200    290.57796   -1396.9184    474.83081     381.4797    479.82093    36638.639 
   79300    294.95123   -1397.8695    430.03549    355.35235    401.09597    36638.639 
   79400    303.29163   -1451.2897    436.39267    345.70539   -9.6648626    36638.639 
   79500    310.58643   -1445.0138    453.98271    402.29669   -178.66783    36638.639 
   79600    288.58132   -1477.1511    460.27118    277.73032   -174.86501    36638.639 
   79700    300.76563   -1428.4501    445.42556    366.24584    196.75338    36638.639 
   79800    295.08157   -1472.3668    434.91125     286.3155   -128.15499    36638.639 
   79900    298.54139   -1434.9603    428.40553    332.73749   -197.48907    36638.639 
   80000    311.27793   -1455.1006    402.22614    343.55539   -150.16807    36638.639 
   80100    300.00298   -1489.9369    386.18133    242.09355   -584.32434    36638.639 
   80200    296.15488   -1512.0201    448.78204    265.34797   -848.51987    36638.639 
   80300    307.75125   -1468.9955    412.51591    324.12923    -283.4794    36638.639 
   80400    303.17663    -1462.123    420.44406    318.40749   -710.83786    36638.639 
   80500    287.17739   -1483.2566    429.95129    235.00673   -56.002735    36638.639 
   80600    297.31578   -1450.1346    417.90681    301.56624    464.23649    36638.639 
   80700    298.20043   -1452.2427    438.53997    324.05997    115.91911    36638.639 
   80800    292.54585   -1500.3806    441.14822    253.16313    116.54058    36638.639 
   80900    287.85882   -1467.1296    449.82654    274.06585   -489.49259    36638.639 
   81000    303.70899    -1440.045    436.02951    358.45919    -60.99079    36638.639 
   81100    288.55093   -1420.8379    422.87849    296.51437    108.95847    36638.639 
   81200    272.04003   -1438.7895    443.09571     224.7102   -452.94886    36638.639 
   81300    255.69198   -1446.1414    492.77049    193.69381   -65.555388    36638.639 
   81400    309.54629   -1447.3046    436.98399    378.34093   -393.06849    36638.639 
   81500    311.18156   -1416.6469    446.29661    425.64729   -461.99005    36638.639 
   81600    304.35901   -1402.2094    452.51545     415.6968   -38.404345    36638.639 
   81700    289.48483   -1421.0062    449.55305     327.2103   -371.22514    36638.639 
   81800    306.63308   -1392.9305    433.26462    415.92662    86.383781    36638.639 
   81900    300.84733   -1439.5788    454.47803    364.53624    557.91961    36638.639 
   82000    303.84643   -1470.9713    444.45316    336.57316    519.82954    36638.639 
   82100    297.93117   -1461.9758     466.7045    341.28341    621.03553    36638.639 
   82200    298.41984   -1448.7661    433.59189    323.57279    458.83946    36638.639 
   82300    297.24846   -1470.3096    441.40007    304.58247     748.3517    36638.639 
   82400    301.12325   -1441.6904    447.83322    357.01759    726.45536    36638.639 
   82500    291.43756   -1445.6383    449.54165    311.32698     579.5093    36638.639 
   82600    297.32122   -1506.0026    434.85594    262.67177    28.732623    36638.639 
   82700    297.72671   -1502.1209    446.38362    279.90023     182.4346    36638.639 
   82800    298.72092   -1519.3043    423.34267    244.13599    213.43455    36638.639 
   82900    297.79787   -1512.0891    414.77947    238.64715    401.94775    36638.639 
   83000    296.85276   -1543.3819    446.39257    234.72753    169.31406    36638.639 
   83100    291.83664   -1477.7057    428.36012    259.86832   -235.37583    36638.639 
   83200    300.12817   -1519.9682    433.23675    259.67929    -369.1232    36638.639 
   83300    301.00354   -1497.4265    438.55184     291.4631   -111.76444    36638.639 
   83400    300.06122   -1467.4903    440.42794    319.04801   -437.27861    36638.639 
   83500    299.92373   -1475.1899     460.4485    330.75221   -342.27536    36638.639 
   83600    306.88176   -1477.6298    431.92799    331.00637   -284.68565    36638.639 
   83700    299.04669   -1526.9322    461.13482    275.76171    -50.73277    36638.639 
   83800      298.617   -1507.9967    442.29426    273.92894    63.671869    36638.639 
   83900    307.06293   -1467.2826    440.73987     350.9781    172.20457    36638.639 
   84000    294.53035   -1500.4696    443.06686    263.89547    59.564958    36638.639 
   84100    309.16036   -1520.7948    439.21205    305.34747    147.21636    36638.639 
   84200     298.0808    -1505.032    442.85384    275.04776    698.01418    36638.639 
   84300     306.7142   -1513.5275    448.67912    311.10808    968.72558    36638.639 
   84400    296.19492   -1488.2285    456.41432    296.95147    766.72631    36638.639 
   84500      298.925   -1493.6727    448.19335    295.53385    389.07526    36638.639 
   84600    295.08108    -1504.367    447.88233    267.28421    614.37549    36638.639 
   84700    308.22115   -1481.0322    443.23466    344.91924    450.38937    36638.639 
   84800    298.80049   -1468.3544    471.89598    343.99619   -119.14367    36638.639 
   84900    299.33254   -1484.0035      449.497     308.3349   -269.59367    36638.639 
   85000    295.17111    -1435.962    452.41571    340.62649    692.34572    36638.639 
   85100    294.37402   -1470.6137    481.28397    331.26721    368.58624    36638.639 
   85200    304.38747   -1460.2934    448.04353    353.26861   -115.32658    36638.639 
   85300    310.72086   -1471.5669    457.55844    379.92239    323.87904    36638.639 
   85400    294.30171   -1487.8637    447.69683     280.1057    -107.4377    36638.639 
   85500    298.41272   -1472.1509    460.26842    326.83251   -21.674073    36638.639 
   85600    297.39591   -1495.2621    444.80753    283.69893    194.40775    36638.639 
   85700    308.83508   -1471.8807    451.52315    365.11337    78.775143    36638.639 
   85800    301.53238   -1471.3854    455.66651    336.99128   -357.97818    36638.639 
   85900    302.66724   -1487.4314    427.01231     297.3822    -673.0232    36638.639 
   86000    304.73245   -1446.9625    460.47384    380.57742    -208.4314    36638.639 
   86100    312.35523   -1468.2921    477.49938    410.47006   -248.57366    36638.639 
   86200      295.655   -1434.6895       482.38    374.03403   -189.09388    36638.639 
   86300    306.68676   -1448.8864    469.99835    396.94525    440.67275    36638.639 
   86400    294.71077   -1482.3198    465.06181    304.84968    311.43805    36638.639 
   86500    291.96963   -1525.3929    441.65422    226.07187    252.20587    36638.639 
   86600    304.57719   -1540.4732    437.01311     262.9095   -354.67316    36638.639 
   86700    303.56341   -1523.6472    440.88567    279.06008   -29.642284    36638.639 
   86800     299.4394   -1512.8332     470.4596    300.94719    77.604804    36638.639 
   86900    292.11819   -1495.8142    458.84226    273.50507   -527.99385    36638.639 
   87000    306.44016   -1497.5685    450.46362     327.6222   -260.87269    36638.639 
   87100    294.00558   -1508.8432    461.85493    271.95579   -775.88921    36638.639 
   87200    294.92779   -1532.6638    434.91483    225.33221   -625.11697    36638.639 
   87300    299.42014   -1487.3519    439.51505    295.39757   -634.78639    36638.639 
   87400    298.82857   -1537.0716    466.70701    270.21599    356.01838    36638.639 
   87500    299.14846   -1514.8818    459.83023    286.96401    431.23653    36638.639 
   87600    295.24332   -1479.5892     463.5748    308.48226    122.04528    36638.639 
   87700    299.10018   -1481.6656    451.45512    311.58854    644.59777    36638.639 
   87800     292.7585   -1524.2804    435.08675    224.15586    105.40845    36638.639 
   87900    295.30549   -1496.4338    433.17604    261.51784    135.17541    36638.639 
   88000    293.64174   -1548.6471    452.63887    221.30362   -235.13663    36638.639 
   88100    299.85032   -1478.1378    437.84451    304.87094    303.92519    36638.639 
   88200    294.66746   -1518.4404    459.02742    262.50038    113.57151    36638.639 
   88300    294.19853   -1510.4233    462.29123    271.67756    798.90001    36638.639 
   88400    302.12167   -1496.3634    433.91449    292.90489    401.94791    36638.639 
   88500     298.3695   -1500.9225    418.45246    256.05112   -240.06097    36638.639 
   88600    302.97659   -1474.4989    457.00783    341.69803   -692.08151    36638.639 
   88700    295.81051   -1473.4302    428.30211    281.91311   -126.86929    36638.639 
[...]
  984300    297.49458   -1567.0491    507.98715    275.53425   -129.51199    36638.639 
  984400    293.14341   -1576.4767     482.3944    220.99394    522.56714    36638.639 
  984500    301.47998   -1615.3075    465.53758    202.70518    763.83342    36638.639 
  984600    296.17866   -1543.7952     484.4892    269.38678    451.91058    36638.639 
  984700     291.1134   -1570.1932    472.72333    208.49955    914.08236    36638.639 
  984800    300.70393   -1538.8626    472.54077    282.67182    1037.0841    36638.639 
  984900    299.00212   -1590.2411    452.04342    203.16143    311.46806    36638.639 
  985000    301.39936   -1554.5258    483.40114    280.98873    232.49686    36638.639 
  985100    300.22595   -1515.4772    497.37328    328.74544    837.93274    36638.639 
  985200    311.70636   -1569.1158    472.97159    302.20767    817.15287    36638.639 
  985300    310.57128   -1567.9107     482.0907    307.43979    33.247638    36638.639 
  985400    303.33616   -1561.9063     509.1032    307.99903    258.92142    36638.639 
  985500    292.88717   -1570.2015     493.2555    236.98075   -59.336106    36638.639 
  985600    299.89311   -1535.8861    479.72589    289.19602    23.166533    36638.639 
  985700    294.62658   -1562.5881    461.21447    220.35636   -863.67407    36638.639 
  985800    299.55498    -1565.525    473.34323    251.65752   -175.57837    36638.639 
  985900    307.81424   -1594.8588    477.17577    263.20829    391.35688    36638.639 
  986000     296.9032   -1578.2517    500.53738     254.2288    684.54442    36638.639 
  986100     306.5085   -1592.1881    462.62179     245.4673    690.81919    36638.639 
  986200    301.65784   -1564.5916    481.12691    269.80832    273.02897    36638.639 
  986300    306.31403   -1545.0742    479.62443    308.71146    354.07044    36638.639 
  986400    304.18412   -1529.1796    508.56006    343.98667    645.14068    36638.639 
  986500    302.33127   -1523.8476    468.47651    300.92302    434.50752    36638.639 
  986600     307.7072     -1528.33    457.64653    309.72765    697.71672    36638.639 
  986700    302.23732    -1531.667    471.38164     295.5873    242.68208    36638.639 
  986800    307.10155   -1498.7627    488.22348    367.15495    89.315897    36638.639 
  986900    296.02006   -1547.7399    445.13553    225.37693   -136.77669    36638.639 
  987000    295.00594   -1506.5552    495.73246    312.60908    221.56118    36638.639 
  987100    292.93006   -1520.9677    483.75684    276.90827    611.65403    36638.639 
  987200    303.31537   -1487.4062    468.38529    341.68802    390.07156    36638.639 
  987300    291.12501   -1454.4951    480.05301    331.57934    231.43196    36638.639 
  987400    292.30083   -1501.6292    487.84986    297.51695    196.13581    36638.639 
  987500    292.94712   -1541.5792    476.35802    248.97446   -167.36422    36638.639 
  987600    308.18274   -1523.0834    483.46039    342.92147    114.57512    36638.639 
  987700    303.23745   -1536.1771     470.6514    294.83362    318.07172    36638.639 
  987800    311.38818   -1513.7076     486.5877    369.80454   -82.069167    36638.639 
  987900    300.84615   -1484.2598    478.56128    343.93314   -658.56653    36638.639 
  988000    308.14623   -1528.1148     465.1867    319.45265   -548.48548    36638.639 
  988100    300.52394   -1519.6894    479.52746    308.02427   -734.73084    36638.639 
  988200    293.83859   -1514.0228    492.17613    296.34828    -258.2217    36638.639 
  988300     304.9769   -1469.3527     501.9024    400.71236   -438.43415    36638.639 
  988400     301.1221   -1512.7891    486.10303    324.18356    79.740869    36638.639 
  988500    295.82492   -1515.6652    469.98691    281.42749    -294.5378    36638.639 
  988600    303.12981    -1532.908    454.80651    281.77495   -66.081067    36638.639 
  988700    294.27632   -1523.8912    492.99733    289.26476    55.956887    36638.639 
  988800    299.39396   -1504.0264    487.14191    326.23242    14.315328    36638.639 
  988900    293.46928   -1519.7506    483.11231    279.89984   -215.45861    36638.639 
  989000    296.26066   -1474.2893    474.64055    329.41187   -258.44299    36638.639 
  989100    298.94132   -1536.9808    454.91468    259.02025   -528.48996    36638.639 
  989200    289.81704   -1533.7985     450.3768    216.73204   -215.41194    36638.639 
  989300    299.89791   -1525.7613    500.26027    319.87671    275.22939    36638.639 
  989400     304.2177   -1523.1229    485.31262    326.94655    337.74702    36638.639 
  989500    299.01867   -1551.7959    452.35837    241.99584   -126.08063    36638.639 
  989600    296.65047   -1514.3989    483.00195    299.41243    188.57684    36638.639 
  989700    297.90555   -1497.3194     498.5627    337.68314    88.883214    36638.639 
  989800    300.48886   -1478.5028    469.41125    338.93726     507.5486    36638.639 
  989900    310.08832   -1521.1257    468.73663    338.70402    107.54865    36638.639 
  990000     296.6947   -1528.4695    474.66725    277.20551   -679.90936    36638.639 
  990100    305.96205   -1538.9195    478.56767    312.23037   -5.0395686    36638.639 
  990200    301.51544   -1540.8284    456.46114    268.26696    207.56618    36638.639 
  990300    302.22736   -1580.9156    457.06374    231.97604    253.25489    36638.639 
  990400    310.89397   -1542.2109    467.54358    320.04012   -131.70426    36638.639 
  990500    301.23521   -1566.7894    473.71483    258.30247   -509.86618    36638.639 
  990600    298.90864   -1559.2595    501.82686    283.50713    49.034833    36638.639 
  990700    299.27319   -1554.0763    455.09236    243.59126    407.61091    36638.639 
  990800    308.80103   -1587.2947    481.30788    279.33136    321.28016    36638.639 
  990900      303.006   -1593.9544    490.19782    255.56443   -198.82238    36638.639 
  991000    298.91598   -1559.7339    469.72692     250.9657   -113.17342    36638.639 
  991100    293.61313   -1527.3963    464.43569    254.22287   -220.68365    36638.639 
  991200    288.39322   -1540.2267    460.87307    214.41275    32.030453    36638.639 
  991300    302.38468   -1502.2363    479.85125    334.14868    596.83119    36638.639 
  991400    293.33628   -1541.4657     473.7203    248.19606    261.94805    36638.639 
  991500    298.90424   -1545.6415    495.10204    290.38049    253.66299    36638.639 
  991600    312.26149   -1525.7092    478.12616    353.25919    326.90231    36638.639 
  991700    305.21842   -1538.1421    483.89082    314.99489    59.803539    36638.639 
  991800    298.77325   -1536.2903    476.29679     280.3389     111.5791    36638.639 
  991900    309.73887   -1508.6451    475.58066    356.46101   -361.49457    36638.639 
  992000    295.69683   -1517.0338    489.34835    298.84574   -69.890563    36638.639 
  992100     300.3639   -1530.9287    472.39599    288.93552   -355.86884    36638.639 
  992200    305.57062    -1554.851     505.5709     321.5461    -135.7611    36638.639 
  992300    304.64602   -1492.6183    501.74205    375.80214   -21.280412    36638.639 
  992400    293.97122   -1521.0223    494.61802    292.38563   -400.61114    36638.639 
  992500    293.88557   -1505.4818    492.80099    305.72489   -83.478369    36638.639 
  992600    293.39993   -1558.3419    499.91147    257.79658   -38.241804    36638.639 
  992700    291.12486   -1496.4632    491.51741    301.07503    163.56522    36638.639 
  992800    301.61687   -1542.0373    487.48147    298.53331    349.19473    36638.639 
  992900    299.92138   -1527.4803    479.76904     297.7718    139.40136    36638.639 
  993000    303.97113   -1535.6209    456.56302    284.59278   -249.09992    36638.639 
  993100    298.11822   -1541.2062     488.5374    284.72501   -402.55349    36638.639 
  993200    294.70514    -1571.191    475.85649    226.74787    -271.4546    36638.639 
  993300    301.86976   -1522.0981    480.59161    312.71722   -197.78271    36638.639 
  993400    308.32643   -1566.6086    468.04817    284.62865    -307.6098    36638.639 
  993500     305.2163   -1521.9685    475.09216    322.36037    810.25255    36638.639 
  993600    295.72656   -1607.9687    455.51184    174.20773    478.16073    36638.639 
  993700    291.20077    -1588.248    461.69403     179.8074    266.44378    36638.639 
  993800    293.68161   -1582.2834    461.73954    196.94688   -148.29725    36638.639 
  993900    296.29188   -1548.1203    490.02759    271.10794   -204.04875    36638.639 
  994000    305.43864   -1560.5572    458.23106    267.90796    -72.10324    36638.639 
  994100    291.52037   -1524.2744    482.67956    266.20021    193.85613    36638.639 
  994200    301.60651    -1539.223    468.50206    282.32177  -0.88472642    36638.639 
  994300    309.92747     -1496.16    478.72556    372.93714    374.64249    36638.639 
  994400    298.01794   -1529.3557    483.03429    290.62257   -81.537641    36638.639 
  994500    299.34101    -1509.847    487.50827    320.54065    -294.4645    36638.639 
  994600    305.58411   -1497.6184    499.92651    373.19482    103.25433    36638.639 
  994700    290.78629   -1469.9951     491.9258    326.43259    14.645549    36638.639 
  994800    307.48468   -1503.3475    491.81791    367.88329   -504.09204    36638.639 
  994900    295.23435   -1518.5048    484.31315    290.26483    325.48394    36638.639 
  995000    312.37131   -1516.4708    470.30214     355.1663   -526.67045    36638.639 
  995100    301.63525   -1481.1245    466.78366    338.83088   -304.29053    36638.639 
  995200    301.74986    -1533.982    464.34699    284.05078   -619.38701    36638.639 
  995300    298.78962   -1514.6213     500.6439    326.42847   -415.03624    36638.639 
  995400    304.61572   -1534.2971    454.63684    286.88217   -419.06477    36638.639 
  995500    298.19112    -1496.707     506.7148    347.72873   -576.02095    36638.639 
  995600    295.43974   -1512.2858    493.45229    306.54433    -700.1799    36638.639 
  995700    300.81485   -1500.8976    476.43788    325.03152   -139.25844    36638.639 
  995800    296.41259   -1512.2005    485.72278     303.2645   -39.367442    36638.639 
  995900    302.30455   -1591.3576    472.23043    237.04706    58.249931    36638.639 
  996000    300.57446    -1552.242    489.63531    285.80617    258.86295    36638.639 
  996100    289.11849    -1533.661    493.27896    256.63794    213.23273    36638.639 
  996200    306.17616   -1544.7403    457.99184    286.79423    187.18449    36638.639 
  996300    298.84658   -1543.1441    489.77567    287.29294   -189.30692    36638.639 
  996400    293.12069    -1535.326    454.32441     233.9728    204.34799    36638.639 
  996500    300.13292   -1545.0237    476.20956    277.61786   -19.043261    36638.639 
  996600    300.33535   -1544.9812    491.94274    294.30168   -147.05108    36638.639 
  996700    301.27856   -1553.3369    502.46765    300.70219    6.8451977    36638.639 
  996800    300.65282   -1555.2841    466.67022    260.15053    98.038698    36638.639 
  996900    293.25436   -1549.0226    483.77585    250.32721   -559.98152    36638.639 
  997000    302.17276   -1553.9248    481.69222     283.3504   -943.86242    36638.639 
  997100    302.25435   -1544.8688     431.9389    243.01911   -575.69982    36638.639 
  997200    304.82836   -1535.7431    481.35051    313.10379   -143.37684    36638.639 
  997300    309.88478   -1493.1324    480.76869    377.81628    516.00085    36638.639 
  997400    292.60288    -1547.391    467.04456    232.30498    238.68772    36638.639 
  997500    299.51379   -1557.2201    514.90645    301.34093     -10.7563    36638.639 
  997600    290.30403   -1557.3447    464.44133    209.43515    84.239784    36638.639 
  997700    296.60184   -1501.1031    482.40894    311.89704   -672.31701    36638.639 
  997800    299.11385   -1494.3483    466.16874    313.68074   -604.30254    36638.639 
  997900    299.18838   -1493.2701    501.78092    350.70556    -625.5164    36638.639 
  998000    297.56654   -1473.3357    472.67449    334.25775   -418.31274    36638.639 
  998100    305.03721   -1458.9861      490.847    400.29412   -901.98206    36638.639 
  998200    307.00476   -1486.6546    456.02056    346.62588   -962.99136    36638.639 
  998300    301.48574   -1522.8414    463.52483    293.18433   -440.75455    36638.639 
  998400    304.07984   -1516.6007    497.77987    345.31761   -333.22072    36638.639 
  998500     293.0579   -1467.1156    468.84423     316.4213   -669.41869    36638.639 
  998600    300.23677   -1526.3911    472.67965    293.18647   -566.84231    36638.639 
  998700    304.67995   -1536.6364    461.46104    291.65523    29.573074    36638.639 
  998800    295.54814    -1526.583    461.91708    261.19817   -736.29677    36638.639 
  998900    300.84409   -1513.6715    499.92978    335.88067   -356.08129    36638.639 
  999000    310.86272   -1542.6134    465.10042    317.05421    86.684817    36638.639 
  999100    301.00436   -1538.5474     484.9191    296.71315   -142.01732    36638.639 
  999200    300.73263   -1524.6953    468.31277    292.73989    182.35638    36638.639 
  999300    300.86964   -1562.4182    467.96731    255.28611    414.63308    36638.639 
  999400    303.87662   -1536.1996    483.44732    310.47438    641.92422    36638.639 
  999500    294.65906    -1604.909      453.975    170.94168     359.2773    36638.639 
  999600    297.86188    -1546.212    474.67451    264.70637    156.33242    36638.639 
  999700    305.84409   -1604.4223    483.67863    251.30938    242.14572    36638.639 
  999800    298.44087   -1597.7635    456.47134    197.54912   -252.26398    36638.639 
  999900    303.33007   -1545.6648      453.314    268.42405     -432.584    36638.639 
 1000000    301.74158    -1562.173    489.69863    281.17426   -549.91863    36638.639 
 1000100    303.98415   -1544.4629    466.08645    285.33268    -467.0594    36638.639 
 1000200    299.42448   -1554.7687    459.94319    248.42843   -349.05446    36638.639 
 1000300    285.52271   -1594.0261    455.74875     142.6116    -154.7847    36638.639 
 1000400    298.04325   -1594.2659     476.0737     218.8653   -164.09425    36638.639 
 1000500    289.89779   -1561.5123    449.20076    188.20444    176.66884    36638.639 
 1000600     303.9493   -1559.3819    478.50217    282.67303   -513.98547    36638.639 
 1000700    301.88564   -1580.5517    471.28609     245.0293    34.000648    36638.639 
 1000800    289.73409   -1563.5393    463.50676    199.74914       411.97    36638.639 
 1000900    296.09526    -1527.993    485.53427    285.85988    391.14925    36638.639 
 1001000    302.89479   -1525.4713    474.95038    308.30114   -225.30603    36638.639 
 1001100    291.91367   -1521.7848    486.18725    273.96189   -423.82894    36638.639 
 1001200    301.41823   -1513.5546    473.45628    312.09981    -339.3362    36638.639 
 1001300    300.36574   -1522.1074    478.59462    303.96371     -186.337    36638.639 
 1001400    306.66299   -1493.2324    453.64661    336.14088   -201.64558    36638.639 
 1001500    305.45561   -1520.7017    478.25662    327.86513    45.297915    36638.639 
 1001600    306.51228   -1516.7284    472.55208    330.87428     -14.4834    36638.639 
 1001700    292.70943   -1518.2502    476.29335     271.1725   -364.21244    36638.639 
 1001800    308.89436   -1518.5018    476.55649    343.79159   -155.90133    36638.639 
 1001900    301.66097   -1502.8046    499.53727    350.01969    310.58346    36638.639 
 1002000    307.66998    -1488.491    480.53326    372.28643    421.11597    36638.639 
 1002100     285.6452   -1465.6872    499.26263    315.01384    72.492968    36638.639 
 1002200    302.53949   -1460.2271    498.85263    395.85371   -634.36242    36638.639 
 1002300    302.92344   -1476.0452    491.72074     374.6262    117.85819    36638.639 
 1002400    297.95544   -1490.6573     472.0951    318.10134    122.30747    36638.639 
 1002500    303.80854   -1492.6858    490.46584    360.70137    691.69904    36638.639 
 1002600    295.79049    -1471.828    501.78232    356.90567    381.56802    36638.639 
 1002700      301.491    -1513.503    479.53263    318.55416    954.25116    36638.639 
 1002800    297.89598   -1524.3022    482.15274    294.24743    -64.30398    36638.639 
 1002900    292.57161   -1531.2704    479.05351     260.2942   -637.81822    36638.639 
 1003000    302.92164   -1503.3416    483.69411    339.29508   -580.04955    36638.639 
 1003100     303.0927   -1462.2537    475.53315    372.98945    -652.1955    36638.639 
 1003200    302.79418   -1524.0674    463.09972    297.40304   -916.17847    36638.639 
 1003300    299.86475   -1505.1998    495.41651    335.44567   -783.96586    36638.639 
 1003400      301.518   -1507.2128     467.8398    313.27267   -418.73137    36638.639 
 1003500       297.49   -1514.8666    515.13844    334.84743   -24.662586    36638.639 
 1003600    302.82975   -1522.4768     485.6437    321.69723    414.84822    36638.639 
 1003700    301.74904   -1516.7853    513.57492    350.47179    452.02504    36638.639 
 1003800    288.15551   -1535.7783    488.22069    245.14232   -227.56761    36638.639 
 1003900    290.41212   -1563.6187    459.65266    198.85736   -215.81093    36638.639 
 1004000    300.63033    -1539.999    505.24335    313.90782    294.05767    36638.639 
 1004100    297.46253   -1535.7969    483.08306    281.73847    -47.10512    36638.639 
 1004200    298.21401   -1515.4113    475.53823    297.95055   -202.02138    36638.639 
 1004300    300.60308   -1481.0574    487.84464    355.32849   -261.06935    36638.639 
 1004400    305.94408   -1533.1855    489.98859    329.30472    -582.0719    36638.639 
 1004500    299.28788   -1509.3661    485.87748     319.1525   -203.83744    36638.639 
 1004600    299.99475   -1504.4439    495.60389    336.97221    -275.9304    36638.639 
 1004700    297.75417     -1483.12     501.5709    354.21162   -36.925781    36638.639 
 1004800    293.03221   -1475.7071    485.20806    324.07833    234.85631    36638.639 
 1004900    292.49542   -1484.9138    490.46492    317.72047   -140.48884    36638.639 
 1004913    300.13792    -1467.738    481.07478    359.79124   -294.24979    36638.639 
Loop time of 593.363 on 32 procs for 1000000 steps with 1506 atoms

Performance: 145.611 ns/day, 0.165 hours/ns, 1685.309 timesteps/s
100.0% CPU use with 32 MPI tasks x no OpenMP threads

MPI task timing breakdown:
Section |  min time  |  avg time  |  max time  |%varavg| %total
---------------------------------------------------------------
Pair    | 242.56     | 278.39     | 309.8      |  96.5 | 46.92
Bond    | 1.3946     | 1.491      | 1.605      |   4.5 |  0.25
Neigh   | 38.363     | 38.444     | 38.523     |   1.0 |  6.48
Comm    | 231.95     | 263.3      | 298.86     |  99.0 | 44.37
Output  | 0.38971    | 0.40623    | 0.83204    |  12.0 |  0.07
Modify  | 8.0573     | 8.2468     | 8.5571     |   4.4 |  1.39
Other   |            | 3.088      |            |       |  0.52

Nlocal:        47.0625 ave          71 max          14 min
Histogram: 1 1 2 2 4 3 10 6 1 2
Nghost:        1990.88 ave        2039 max        1943 min
Histogram: 4 1 2 2 6 5 4 4 2 2
Neighs:        5366.75 ave       10294 max        1497 min
Histogram: 2 2 5 3 8 6 2 3 0 1

Total # of neighbors = 171736
Ave neighs/atom = 114.03453
Ave special neighs/atom = 2.0079681
Neighbor list builds = 49710
Dangerous builds = 0

# Output the system volume
variable v equal vol
print 'The system volume is $v'
The system volume is 36638.6386634246

# Outputs
variable A equal xhi-xlo
variable B equal yhi-ylo
variable C equal zhi-zlo
variable D equal xy
variable E equal xz
variable F equal yz
print 'Lattice vectors'
Lattice vectors
print '$A 0 0'
33.2133826943363 0 0
print '$D $B 0'
0 33.2133826943363 0
print '$E $F $C'
0 0 33.2133826943363
Total wall time: 0:09:58
