LAMMPS data file
 1520 atoms
 1021 bonds
 536 angles
 52 dihedrals
 8 impropers
 6 atom types
 8 bond types
 4 angle types
 3 dihedral types
 1 improper types
 0 15 xlo xhi
 0 15 ylo yhi
 0 15 zlo zhi
 0 0 0 xy xz yz

# Atom types
#
# 1 C_R
# 2 C_2
# 3 C_3
# 4 H_
# 5 H__HB
# 6 O_3

# Bond Coeffs
#
# 1 C_R*C_R
# 2 C_R*C_3
# 3 C_2*C_3
# 4 C_2*C_2
# 5 C_R*H_
# 6 C_2*H_
# 7 C_3*H_
# 8 O_3*H__HB

# Angle Coeffs
#
# 1 C_R
# 2 C_2
# 3 C_3
# 4 O_3

# Dihedral Coeffs
#
# 1 D1
# 2 B1
# 3 C1

# Inversion Coeffs
#
# 1 1

 Masses

 1 12.01
 2 12.01
 3 12.01
 4 1.01
 5 1.01
 6 16

 Atoms # full

1 1 1 0 4.77507798769468 4.59855487496753 9.34353409774242
2 1 1 0 5.19789097546198 3.24454153273218 9.18119745239103
3 1 1 0 5.68584842526919 5.56043763806817 9.86883486881572
4 1 1 0 6.50349536092097 2.87747657190358 9.5773323198316
5 1 1 0 6.987895787085 5.15803541295468 10.2433635951001
6 1 1 0 7.39316616999159 3.82517573130543 10.1007040851731
7 1 2 0 3.02864165522852 6.40109927886513 9.30677544407257
8 1 3 0 3.39107111280532 5.03456069562233 8.98356478708648
9 1 2 0 3.89758534164024 7.29655493434431 9.79337476478269
10 1 3 0 5.30672126644025 7.0006880311569 10.034667141447
11 1 4 0 6.82747144320993 1.91204560105652 9.4953601987538
12 1 4 0 7.65231419524249 5.83625661448082 10.6256940682538
13 1 4 0 8.33635130175508 3.54428855328091 10.3791255111476
14 1 4 0 2.08628490935545 6.68421502554437 9.15749424133836
15 1 4 0 2.67752444924717 4.38875688842017 9.5008233795992
16 1 4 0 3.25354588811846 4.91786115571397 7.90739959532455
17 1 4 0 3.56574775594925 8.21176861347106 9.99692089778959
18 1 4 0 5.46743144752787 7.21597303045989 11.0966794185747
19 1 4 0 6.22395065236708 7.87177473644191 9.21464992487896
20 1 4 0 4.16180751564694 1.98098452287975 8.53903657134135
21 2 5 0 4.75161448630504 10.1467920285091 3.95747320493683
22 2 6 0 5.71161448630504 10.1467920285091 3.95747320493683
23 2 5 0 5.95161448630504 9.21679202850908 3.95747320493683
24 3 5 0 3.63947540681809 8.14961606328376 3.84207994560711
25 3 6 0 4.59947540681809 8.14961606328376 3.84207994560711
26 3 5 0 4.83947540681809 7.21961606328376 3.84207994560711
27 4 5 0 4.24658046380617 4.45507208624855 5.64650539308786
28 4 6 0 5.20658046380617 4.45507208624855 5.64650539308786
29 4 5 0 5.44658046380617 3.52507208624855 5.64650539308786
30 5 5 0 5.98637007337064 2.53662947140634 7.80811235890724
31 5 6 0 6.94637007337064 2.53662947140634 7.80811235890724
32 5 5 0 7.18637007337064 1.60662947140634 7.80811235890724
33 6 5 0 12.2567880833242 14.7288203057274 3.7075571436435
34 6 6 0 13.2167880833242 14.7288203057274 3.7075571436435
35 6 5 0 13.4567880833242 13.7988203057274 3.7075571436435
36 7 5 0 11.1709852823708 10.8717089814041 8.71426997822709
37 7 6 0 12.1309852823708 10.8717089814041 8.71426997822709
38 7 5 0 12.3709852823708 9.94170898140408 8.71426997822709
39 8 5 0 8.67258445054293 1.35777466505766 5.880444139475
40 8 6 0 9.63258445054293 1.35777466505766 5.880444139475
41 8 5 0 9.87258445054293 0.427774665057659 5.880444139475
42 9 5 0 11.7594425605796 12.0178400589526 5.31933311372995
43 9 6 0 12.7194425605796 12.0178400589526 5.31933311372995
44 9 5 0 12.9594425605796 11.0878400589526 5.31933311372995
45 10 5 0 14.0713203039207 13.923403813215 7.70484814303927
46 10 6 0 15.0313203039207 13.923403813215 7.70484814303927
47 10 5 0 15.2713203039207 12.993403813215 7.70484814303927
48 11 5 0 5.54960302004591 8.6201060485933 5.41136587620713
49 11 6 0 6.50960302004591 8.6201060485933 5.41136587620713
50 11 5 0 6.74960302004591 7.6901060485933 5.41136587620713
51 12 5 0 0.00165939258411529 6.80217358673923 1.35052989469841
52 12 6 0 0.961659392584115 6.80217358673923 1.35052989469841
53 12 5 0 1.20165939258412 5.87217358673923 1.35052989469841
54 13 5 0 4.50258299519308 7.74735106778331 6.62452485412359
55 13 6 0 5.46258299519308 7.74735106778331 6.62452485412359
56 13 5 0 5.70258299519308 6.81735106778331 6.62452485412359
57 14 5 0 11.2510980984382 8.38942295912653 9.0618457691744
58 14 6 0 12.2110980984382 8.38942295912653 9.0618457691744
59 14 5 0 12.4510980984382 7.45942295912653 9.0618457691744
60 15 5 0 8.1904078116361 12.5162639624346 14.0742200764362
61 15 6 0 9.15040781163611 12.5162639624346 14.0742200764362
62 15 5 0 9.39040781163611 11.5862639624346 14.0742200764362
63 16 5 0 5.90422144669108 3.45159109955654 13.8114039658103
64 16 6 0 6.86422144669108 3.45159109955654 13.8114039658103
65 16 5 0 7.10422144669108 2.52159109955654 13.8114039658103
66 17 5 0 10.416039798148 1.51957346516661 13.1769439112395
67 17 6 0 11.376039798148 1.51957346516661 13.1769439112395
68 17 5 0 11.616039798148 0.589573465166613 13.1769439112395
69 18 5 0 2.07201796744019 7.93935809674673 10.2078264125157
70 18 6 0 3.03201796744019 7.93935809674673 10.2078264125157
71 18 5 0 3.27201796744019 7.00935809674673 10.2078264125157
72 19 5 0 10.7607877724525 10.4711408987083 5.58386988239363
73 19 6 0 11.7207877724525 10.4711408987083 5.58386988239363
74 19 5 0 11.9607877724525 9.54114089870825 5.58386988239363
75 20 5 0 13.6692230198253 11.8777049825899 14.709710595198
76 20 6 0 14.6292230198253 11.8777049825899 14.709710595198
77 20 5 0 14.8692230198253 10.9477049825899 14.709710595198
78 21 5 0 10.1874862394482 12.1534243206866 8.67671401589178
79 21 6 0 11.1474862394482 12.1534243206866 8.67671401589178
80 21 5 0 11.3874862394482 11.2234243206866 8.67671401589178
81 22 5 0 2.86314909855835 6.13945620175451 7.47147371526808
82 22 6 0 3.82314909855835 6.13945620175451 7.47147371526808
83 22 5 0 4.06314909855835 5.20945620175451 7.47147371526808
84 23 5 0 11.7502580622397 12.4046025394369 9.33264543302357
85 23 6 0 12.7102580622397 12.4046025394369 9.33264543302357
86 23 5 0 12.9502580622397 11.4746025394369 9.33264543302357
87 24 5 0 13.6309417923633 10.6839175363444 9.32081596925855
88 24 6 0 14.5909417923633 10.6839175363444 9.32081596925855
89 24 5 0 14.8309417923633 9.75391753634438 9.32081596925855
90 25 5 0 9.81659293684177 13.0460017446335 3.88328526285477
91 25 6 0 10.7765929368418 13.0460017446335 3.88328526285477
92 25 5 0 11.0165929368418 12.1160017446335 3.88328526285477
93 26 5 0 4.73217278762721 6.38335050124675 6.94923572475091
94 26 6 0 5.69217278762721 6.38335050124675 6.94923572475091
95 26 5 0 5.93217278762721 5.45335050124675 6.94923572475091
96 27 5 0 13.5474127500504 14.9213959769718 3.88271686155349
97 27 6 0 14.5074127500504 14.9213959769718 3.88271686155349
98 27 5 0 14.7474127500504 13.9913959769718 3.88271686155349
99 28 5 0 3.22306726986542 9.49253112467937 9.75902006146498
100 28 6 0 4.18306726986542 9.49253112467937 9.75902006146498
101 28 5 0 4.42306726986542 8.56253112467937 9.75902006146498
102 29 5 0 9.21615607148968 10.257369779693 3.89504425926134
103 29 6 0 10.1761560714897 10.257369779693 3.89504425926134
104 29 5 0 10.4161560714897 9.32736977969296 3.89504425926134
105 30 5 0 5.35447785325348 8.37917677400634 9.53456368879415
106 30 6 0 6.31447785325348 8.37917677400634 9.53456368879415
107 30 5 0 6.55447785325348 7.44917677400634 9.53456368879415
108 31 5 0 9.97688016548753 1.17571862804703 1.29765834426507
109 31 6 0 10.9368801654875 1.17571862804703 1.29765834426507
110 31 5 0 11.1768801654875 0.245718628047034 1.29765834426507
111 32 5 0 13.1959830997232 2.03826575348154 7.52330018556677
112 32 6 0 14.1559830997232 2.03826575348154 7.52330018556677
113 32 5 0 14.3959830997232 1.10826575348154 7.52330018556677
114 33 5 0 2.03778724579141 15.0560831515491 11.328064390691
115 33 6 0 2.99778724579141 15.0560831515491 11.328064390691
116 33 5 0 3.23778724579141 14.1260831515491 11.328064390691
117 34 5 0 1.8740018997062 5.51825550425798 8.70482202619314
118 34 6 0 2.8340018997062 5.51825550425798 8.70482202619314
119 34 5 0 3.0740018997062 4.58825550425798 8.70482202619314
120 35 5 0 7.37901108616032 4.71178488264792 4.3165456247516
121 35 6 0 8.33901108616032 4.71178488264792 4.3165456247516
122 35 5 0 8.57901108616032 3.78178488264792 4.3165456247516
123 36 5 0 8.19432162956335 9.92669652257115 8.68823448079638
124 36 6 0 9.15432162956335 9.92669652257115 8.68823448079638
125 36 5 0 9.39432162956335 8.99669652257115 8.68823448079638
126 37 5 0 9.75123843804002 11.9281744332425 0.972134987823665
127 37 6 0 10.71123843804 11.9281744332425 0.972134987823665
128 37 5 0 10.95123843804 10.9981744332425 0.972134987823665
129 38 5 0 3.5482718031574 3.77898824442178 1.04039422469214
130 38 6 0 4.5082718031574 3.77898824442178 1.04039422469214
131 38 5 0 4.7482718031574 2.84898824442178 1.04039422469214
132 39 5 0 12.6724992720131 6.82534941629507 3.73644743696786
133 39 6 0 13.6324992720131 6.82534941629507 3.73644743696786
134 39 5 0 13.8724992720131 5.89534941629507 3.73644743696786
135 40 5 0 11.5514859887492 6.97441115667112 13.0863833602052
136 40 6 0 12.5114859887492 6.97441115667112 13.0863833602052
137 40 5 0 12.7514859887492 6.04441115667112 13.0863833602052
138 41 5 0 2.78826112786308 2.03097300877795 11.7564983584452
139 41 6 0 3.74826112786308 2.03097300877795 11.7564983584452
140 41 5 0 3.98826112786308 1.10097300877795 11.7564983584452
141 42 5 0 8.80954176231287 9.1612867630925 12.0266950561199
142 42 6 0 9.76954176231287 9.1612867630925 12.0266950561199
143 42 5 0 10.0095417623129 8.2312867630925 12.0266950561199
144 43 5 0 10.0561520566419 1.25208338530734 12.3572471947409
145 43 6 0 11.0161520566419 1.25208338530734 12.3572471947409
146 43 5 0 11.2561520566419 0.322083385307342 12.3572471947409
147 44 5 0 9.73288340770639 1.15377787541598 6.26082425471395
148 44 6 0 10.6928834077064 1.15377787541598 6.26082425471395
149 44 5 0 10.9328834077064 0.223777875415981 6.26082425471395
150 45 5 0 11.4202876521461 9.47319351876155 11.1389971640892
151 45 6 0 12.3802876521461 9.47319351876155 11.1389971640892
152 45 5 0 12.6202876521461 8.54319351876155 11.1389971640892
153 46 5 0 6.87941566851921 8.76107358065434 0.814472447382286
154 46 6 0 7.83941566851921 8.76107358065434 0.814472447382286
155 46 5 0 8.07941566851921 7.83107358065434 0.814472447382286
156 47 5 0 7.2924816542957 9.3088282113336 12.2573122917674
157 47 6 0 8.2524816542957 9.3088282113336 12.2573122917674
158 47 5 0 8.4924816542957 8.3788282113336 12.2573122917674
159 48 5 0 9.24537775732577 2.0288720498234 14.216610447038
160 48 6 0 10.2053777573258 2.0288720498234 14.216610447038
161 48 5 0 10.4453777573258 1.0988720498234 14.216610447038
162 49 5 0 2.03176092633046 5.46511248144321 13.5856298811268
163 49 6 0 2.99176092633046 5.46511248144321 13.5856298811268
164 49 5 0 3.23176092633046 4.53511248144321 13.5856298811268
165 50 5 0 7.59230464274995 13.8434427689668 10.274129610043
166 50 6 0 8.55230464274995 13.8434427689668 10.274129610043
167 50 5 0 8.79230464274995 12.9134427689668 10.274129610043
168 51 5 0 12.1590402179584 9.59498663706705 5.95835267216899
169 51 6 0 13.1190402179584 9.59498663706705 5.95835267216899
170 51 5 0 13.3590402179584 8.66498663706705 5.95835267216899
171 52 5 0 5.19577322920784 12.985583823584 7.15287723345682
172 52 6 0 6.15577322920784 12.985583823584 7.15287723345682
173 52 5 0 6.39577322920784 12.055583823584 7.15287723345682
174 53 5 0 9.17784741075709 14.4998680583108 9.53760565607809
175 53 6 0 10.1378474107571 14.4998680583108 9.53760565607809
176 53 5 0 10.3778474107571 13.5698680583108 9.53760565607809
177 54 5 0 12.8660970045906 6.77945223095827 0.000661328667774796
178 54 6 0 13.8260970045906 6.77945223095827 0.000661328667774796
179 54 5 0 14.0660970045906 5.84945223095827 0.000661328667774796
180 55 5 0 -0.712678149137646 12.7637383508869 11.9042133016046
181 55 6 0 0.247321850862354 12.7637383508869 11.9042133016046
182 55 5 0 0.487321850862354 11.8337383508869 11.9042133016046
183 56 5 0 9.7745619252976 13.3983586918935 1.66401730617508
184 56 6 0 10.7345619252976 13.3983586918935 1.66401730617508
185 56 5 0 10.9745619252976 12.4683586918935 1.66401730617508
186 57 5 0 9.5989961775206 14.2079784119874 6.68178067076951
187 57 6 0 10.5589961775206 14.2079784119874 6.68178067076951
188 57 5 0 10.7989961775206 13.2779784119874 6.68178067076951
189 58 5 0 9.34353773642331 10.7928876385 8.67242603679188
190 58 6 0 10.3035377364233 10.7928876385 8.67242603679188
191 58 5 0 10.5435377364233 9.86288763849996 8.67242603679188
192 59 5 0 0.183483069268987 9.80573314283043 13.6985516734421
193 59 6 0 1.14348306926899 9.80573314283043 13.6985516734421
194 59 5 0 1.38348306926899 8.87573314283043 13.6985516734421
195 60 5 0 12.5548873229139 13.8861706519406 6.0378567664884
196 60 6 0 13.5148873229139 13.8861706519406 6.0378567664884
197 60 5 0 13.7548873229139 12.9561706519406 6.0378567664884
198 61 5 0 13.870643994743 11.4732015509531 9.96636923169717
199 61 6 0 14.830643994743 11.4732015509531 9.96636923169717
200 61 5 0 15.070643994743 10.5432015509531 9.96636923169717
201 62 5 0 3.91016395806335 10.6469440394454 2.42266812943853
202 62 6 0 4.87016395806335 10.6469440394454 2.42266812943853
203 62 5 0 5.11016395806335 9.71694403944537 2.42266812943853
204 63 5 0 -0.436251109493896 12.0875941104628 7.86690406152047
205 63 6 0 0.523748890506104 12.0875941104628 7.86690406152047
206 63 5 0 0.763748890506104 11.1575941104628 7.86690406152047
207 64 5 0 10.1626474857051 0.553701837025583 9.06823233584873
208 64 6 0 11.1226474857051 0.553701837025583 9.06823233584873
209 64 5 0 11.3626474857051 -0.376298162974417 9.06823233584873
210 65 5 0 5.14689457297325 5.72596107301302 8.13017730019055
211 65 6 0 6.10689457297325 5.72596107301302 8.13017730019055
212 65 5 0 6.34689457297325 4.79596107301302 8.13017730019055
213 66 5 0 10.7827138357982 14.4995680455491 3.7341468106024
214 66 6 0 11.7427138357982 14.4995680455491 3.7341468106024
215 66 5 0 11.9827138357982 13.5695680455491 3.7341468106024
216 67 5 0 1.29517237233929 8.54992501245812 5.18252911395393
217 67 6 0 2.25517237233929 8.54992501245812 5.18252911395393
218 67 5 0 2.49517237233929 7.61992501245812 5.18252911395393
219 68 5 0 5.05667850069702 3.00731124863029 4.70230035949498
220 68 6 0 6.01667850069702 3.00731124863029 4.70230035949498
221 68 5 0 6.25667850069702 2.07731124863029 4.70230035949498
222 69 5 0 1.40389347259887 2.35491308657452 8.51542307529598
223 69 6 0 2.36389347259887 2.35491308657452 8.51542307529598
224 69 5 0 2.60389347259887 1.42491308657452 8.51542307529598
225 70 5 0 4.01993758438155 13.871785032507 9.27970189601183
226 70 6 0 4.97993758438155 13.871785032507 9.27970189601183
227 70 5 0 5.21993758438155 12.941785032507 9.27970189601183
228 71 5 0 10.6351107072271 14.4849319259543 0.54533579503186
229 71 6 0 11.5951107072271 14.4849319259543 0.54533579503186
230 71 5 0 11.8351107072271 13.5549319259543 0.54533579503186
231 72 5 0 2.29570531446487 4.47831011301838 1.88973633921705
232 72 6 0 3.25570531446487 4.47831011301838 1.88973633921705
233 72 5 0 3.49570531446487 3.54831011301838 1.88973633921705
234 73 5 0 12.9809748537093 8.83860156795941 0.683432165533304
235 73 6 0 13.9409748537093 8.83860156795941 0.683432165533304
236 73 5 0 14.1809748537093 7.90860156795941 0.683432165533304
237 74 5 0 6.96296790425666 4.36603799852543 1.56442797160707
238 74 6 0 7.92296790425666 4.36603799852543 1.56442797160707
239 74 5 0 8.16296790425666 3.43603799852543 1.56442797160707
240 75 5 0 9.60432988635264 10.8888976629265 1.23009310103953
241 75 6 0 10.5643298863526 10.8888976629265 1.23009310103953
242 75 5 0 10.8043298863526 9.95889766292647 1.23009310103953
243 76 5 0 11.1891975688934 12.0774682301003 12.8908280236647
244 76 6 0 12.1491975688934 12.0774682301003 12.8908280236647
245 76 5 0 12.3891975688934 11.1474682301003 12.8908280236647
246 77 5 0 1.60865909929387 14.3733951243944 1.45165213965811
247 77 6 0 2.56865909929387 14.3733951243944 1.45165213965811
248 77 5 0 2.80865909929387 13.4433951243944 1.45165213965811
249 78 5 0 10.849920508191 7.80249042593874 5.88104964466766
250 78 6 0 11.809920508191 7.80249042593874 5.88104964466766
251 78 5 0 12.049920508191 6.87249042593874 5.88104964466766
252 79 5 0 10.394983165171 12.4485756274685 13.7161174253561
253 79 6 0 11.354983165171 12.4485756274685 13.7161174253561
254 79 5 0 11.594983165171 11.5185756274685 13.7161174253561
255 80 5 0 7.19465467424132 7.92276976554654 1.66277922922745
256 80 6 0 8.15465467424132 7.92276976554654 1.66277922922745
257 80 5 0 8.39465467424132 6.99276976554655 1.66277922922745
258 81 5 0 8.38201622871682 8.91410564346239 8.69776405161247
259 81 6 0 9.34201622871682 8.91410564346239 8.69776405161247
260 81 5 0 9.58201622871682 7.98410564346239 8.69776405161247
261 82 5 0 -0.504142604330555 7.91250634513795 14.7003854066133
262 82 6 0 0.455857395669445 7.91250634513795 14.7003854066133
263 82 5 0 0.695857395669445 6.98250634513795 14.7003854066133
264 83 5 0 0.334847999475896 4.32488940929994 9.06799475778826
265 83 6 0 1.2948479994759 4.32488940929994 9.06799475778826
266 83 5 0 1.5348479994759 3.39488940929994 9.06799475778826
267 84 5 0 12.8885878370795 12.5123194143549 13.2588745211251
268 84 6 0 13.8485878370795 12.5123194143549 13.2588745211251
269 84 5 0 14.0885878370795 11.5823194143549 13.2588745211251
270 85 5 0 9.10493555406108 6.7011821518559 12.1352562261745
271 85 6 0 10.0649355540611 6.7011821518559 12.1352562261745
272 85 5 0 10.3049355540611 5.7711821518559 12.1352562261745
273 86 5 0 6.80910621464252 1.84690328239463 14.083686178783
274 86 6 0 7.76910621464252 1.84690328239463 14.083686178783
275 86 5 0 8.00910621464253 0.916903282394633 14.083686178783
276 87 5 0 9.9195788420923 10.3656621386204 1.9981792406179
277 87 6 0 10.8795788420923 10.3656621386204 1.9981792406179
278 87 5 0 11.1195788420923 9.43566213862039 1.9981792406179
279 88 5 0 5.00134399786592 6.50238102110103 7.13722488842905
280 88 6 0 5.96134399786592 6.50238102110103 7.13722488842905
281 88 5 0 6.20134399786592 5.57238102110103 7.13722488842905
282 89 5 0 1.87821046725847 1.40387947712094 6.58397408318706
283 89 6 0 2.83821046725847 1.40387947712094 6.58397408318706
284 89 5 0 3.07821046725847 0.473879477120936 6.58397408318706
285 90 5 0 0.588217876357958 12.9062882500608 10.8106276905164
286 90 6 0 1.54821787635796 12.9062882500608 10.8106276905164
287 90 5 0 1.78821787635796 11.9762882500608 10.8106276905164
288 91 5 0 8.90213573860936 12.7677148200478 8.88458264409564
289 91 6 0 9.86213573860936 12.7677148200478 8.88458264409564
290 91 5 0 10.1021357386094 11.8377148200478 8.88458264409564
291 92 5 0 7.55628298429772 10.424125815453 10.2911154006142
292 92 6 0 8.51628298429772 10.424125815453 10.2911154006142
293 92 5 0 8.75628298429772 9.49412581545301 10.2911154006142
294 93 5 0 6.9576509382762 0.488011733805761 3.8019492616877
295 93 6 0 7.9176509382762 0.488011733805761 3.8019492616877
296 93 5 0 8.1576509382762 -0.441988266194239 3.8019492616877
297 94 5 0 10.4288735850435 0.964191623907536 7.92284841067158
298 94 6 0 11.3888735850435 0.964191623907536 7.92284841067158
299 94 5 0 11.6288735850435 0.0341916239075362 7.92284841067158
300 95 5 0 2.00235048701987 8.48717266501859 5.34627593471669
301 95 6 0 2.96235048701987 8.48717266501859 5.34627593471669
302 95 5 0 3.20235048701987 7.55717266501859 5.34627593471669
303 96 5 0 11.9478701851051 9.62718547362834 4.17861156282015
304 96 6 0 12.9078701851051 9.62718547362834 4.17861156282015
305 96 5 0 13.1478701851051 8.69718547362834 4.17861156282015
306 97 5 0 9.40257213005796 7.82186481793411 8.00053305225447
307 97 6 0 10.362572130058 7.82186481793411 8.00053305225447
308 97 5 0 10.602572130058 6.89186481793411 8.00053305225447
309 98 5 0 7.73317138941027 2.4607296373602 13.5074245347641
310 98 6 0 8.69317138941027 2.4607296373602 13.5074245347641
311 98 5 0 8.93317138941027 1.5307296373602 13.5074245347641
312 99 5 0 6.55949560037814 9.93776305503212 3.97518513025716
313 99 6 0 7.51949560037814 9.93776305503212 3.97518513025716
314 99 5 0 7.75949560037814 9.00776305503212 3.97518513025716
315 100 5 0 11.4453459523804 5.63316154451109 8.99538234458305
316 100 6 0 12.4053459523804 5.63316154451109 8.99538234458305
317 100 5 0 12.6453459523804 4.70316154451109 8.99538234458305
318 101 5 0 7.35173726032488 10.0437849694304 4.95677413302474
319 101 6 0 8.31173726032488 10.0437849694304 4.95677413302474
320 101 5 0 8.55173726032488 9.11378496943042 4.95677413302474
321 102 5 0 13.0035862703528 6.5535352418106 7.1573428530246
322 102 6 0 13.9635862703528 6.5535352418106 7.1573428530246
323 102 5 0 14.2035862703528 5.6235352418106 7.1573428530246
324 103 5 0 8.4560975390207 13.2153986282088 0.389798856340349
325 103 6 0 9.4160975390207 13.2153986282088 0.389798856340349
326 103 5 0 9.6560975390207 12.2853986282088 0.389798856340349
327 104 5 0 11.6173962461483 12.9163122029882 9.28196403197944
328 104 6 0 12.5773962461483 12.9163122029882 9.28196403197944
329 104 5 0 12.8173962461483 11.9863122029882 9.28196403197944
330 105 5 0 2.92521757699549 8.68676251889207 11.9409740169067
331 105 6 0 3.88521757699549 8.68676251889207 11.9409740169067
332 105 5 0 4.12521757699549 7.75676251889206 11.9409740169067
333 106 5 0 13.2351947044674 1.42737316241488 5.66636832430959
334 106 6 0 14.1951947044674 1.42737316241488 5.66636832430959
335 106 5 0 14.4351947044674 0.497373162414879 5.66636832430959
336 107 5 0 6.27802693678066 12.7329987512808 9.04996718047187
337 107 6 0 7.23802693678066 12.7329987512808 9.04996718047187
338 107 5 0 7.47802693678066 11.8029987512808 9.04996718047187
339 108 5 0 0.878531064810231 5.57180476997979 5.04642933723517
340 108 6 0 1.83853106481023 5.57180476997979 5.04642933723517
341 108 5 0 2.07853106481023 4.64180476997979 5.04642933723517
342 109 5 0 12.7692798413057 3.67106925737113 3.28301193541847
343 109 6 0 13.7292798413057 3.67106925737113 3.28301193541847
344 109 5 0 13.9692798413057 2.74106925737113 3.28301193541847
345 110 5 0 -0.565966153079644 10.4143822581414 10.7682188611943
346 110 6 0 0.394033846920356 10.4143822581414 10.7682188611943
347 110 5 0 0.634033846920356 9.48438225814141 10.7682188611943
348 111 5 0 8.14224907008 2.34270107624121 12.2104897268582
349 111 6 0 9.10224907008 2.34270107624121 12.2104897268582
350 111 5 0 9.34224907008 1.41270107624121 12.2104897268582
351 112 5 0 2.93248808520846 10.3827099517826 9.12604991812259
352 112 6 0 3.89248808520846 10.3827099517826 9.12604991812259
353 112 5 0 4.13248808520846 9.4527099517826 9.12604991812259
354 113 5 0 7.16491849321872 1.56761224422604 14.3446696945466
355 113 6 0 8.12491849321872 1.56761224422604 14.3446696945466
356 113 5 0 8.36491849321872 0.637612244226038 14.3446696945466
357 114 5 0 8.07761674907058 3.45925385639071 10.4674793710001
358 114 6 0 9.03761674907058 3.45925385639071 10.4674793710001
359 114 5 0 9.27761674907059 2.52925385639071 10.4674793710001
360 115 5 0 11.2597321991064 0.389249881673604 2.48392638168298
361 115 6 0 12.2197321991064 0.389249881673604 2.48392638168298
362 115 5 0 12.4597321991064 -0.540750118326396 2.48392638168298
363 116 5 0 8.74971296332776 2.73276106728241 3.08313940884545
364 116 6 0 9.70971296332777 2.73276106728241 3.08313940884545
365 116 5 0 9.94971296332777 1.80276106728241 3.08313940884545
366 117 5 0 -0.147825640887022 10.7137926124875 9.41264490480535
367 117 6 0 0.812174359112978 10.7137926124875 9.41264490480535
368 117 5 0 1.05217435911298 9.78379261248745 9.41264490480535
369 118 5 0 1.48479753334075 11.1074411337636 2.04399411915801
370 118 6 0 2.44479753334075 11.1074411337636 2.04399411915801
371 118 5 0 2.68479753334075 10.1774411337636 2.04399411915801
372 119 5 0 4.23596433640458 5.06339240045287 2.67417404218577
373 119 6 0 5.19596433640458 5.06339240045287 2.67417404218577
374 119 5 0 5.43596433640458 4.13339240045287 2.67417404218577
375 120 5 0 5.91512470317073 6.02871770662256 4.39996520988643
376 120 6 0 6.87512470317073 6.02871770662256 4.39996520988643
377 120 5 0 7.11512470317073 5.09871770662256 4.39996520988643
378 121 5 0 2.19523095569573 8.17264425958507 14.643707962241
379 121 6 0 3.15523095569573 8.17264425958507 14.643707962241
380 121 5 0 3.39523095569573 7.24264425958507 14.643707962241
381 122 5 0 10.1023362767603 13.8453165818378 14.3583807139657
382 122 6 0 11.0623362767603 13.8453165818378 14.3583807139657
383 122 5 0 11.3023362767603 12.9153165818378 14.3583807139657
384 123 5 0 10.0049293487985 4.53821167041548 7.14756814995781
385 123 6 0 10.9649293487985 4.53821167041548 7.14756814995781
386 123 5 0 11.2049293487985 3.60821167041548 7.14756814995781
387 124 5 0 3.67114027074538 12.0965641089156 2.12894078926183
388 124 6 0 4.63114027074538 12.0965641089156 2.12894078926183
389 124 5 0 4.87114027074538 11.1665641089156 2.12894078926183
390 125 5 0 3.37993642824702 2.60478916618973 1.97436912101693
391 125 6 0 4.33993642824702 2.60478916618973 1.97436912101693
392 125 5 0 4.57993642824702 1.67478916618973 1.97436912101693
393 126 5 0 1.4110327865649 5.39983655599877 1.46392850903794
394 126 6 0 2.3710327865649 5.39983655599877 1.46392850903794
395 126 5 0 2.6110327865649 4.46983655599877 1.46392850903794
396 127 5 0 3.44866030893289 9.41920207272284 12.4848508718424
397 127 6 0 4.40866030893289 9.41920207272284 12.4848508718424
398 127 5 0 4.64866030893289 8.48920207272284 12.4848508718424
399 128 5 0 4.51148537962697 4.64940570103005 2.6019615016412
400 128 6 0 5.47148537962697 4.64940570103005 2.6019615016412
401 128 5 0 5.71148537962697 3.71940570103005 2.6019615016412
402 129 5 0 13.0660054790508 3.89629803638905 13.5577121959068
403 129 6 0 14.0260054790508 3.89629803638905 13.5577121959068
404 129 5 0 14.2660054790508 2.96629803638905 13.5577121959068
405 130 5 0 3.36064751070924 13.2636395927425 12.3120301938616
406 130 6 0 4.32064751070924 13.2636395927425 12.3120301938616
407 130 5 0 4.56064751070924 12.3336395927425 12.3120301938616
408 131 5 0 12.5788438883331 13.1944206174836 12.7206202922389
409 131 6 0 13.5388438883331 13.1944206174836 12.7206202922389
410 131 5 0 13.7788438883331 12.2644206174836 12.7206202922389
411 132 5 0 0.0198621586617083 10.4094381611235 14.8385424970184
412 132 6 0 0.979862158661708 10.4094381611235 14.8385424970184
413 132 5 0 1.21986215866171 9.47943816112354 14.8385424970184
414 133 5 0 0.318936576806009 10.4239081653673 4.84847774379887
415 133 6 0 1.27893657680601 10.4239081653673 4.84847774379887
416 133 5 0 1.51893657680601 9.49390816536732 4.84847774379887
417 134 5 0 2.95491448880173 3.31088212476112 7.89928592392243
418 134 6 0 3.91491448880173 3.31088212476112 7.89928592392243
419 134 5 0 4.15491448880173 2.38088212476112 7.89928592392243
420 135 5 0 4.97833451416343 11.8697346273717 6.91017513745464
421 135 6 0 5.93833451416343 11.8697346273717 6.91017513745464
422 135 5 0 6.17833451416343 10.9397346273717 6.91017513745464
423 136 5 0 12.708191493731 2.56459759472869 2.2447615955025
424 136 6 0 13.668191493731 2.56459759472869 2.2447615955025
425 136 5 0 13.908191493731 1.63459759472869 2.2447615955025
426 137 5 0 5.53864274566993 0.502196613643318 4.33129509910941
427 137 6 0 6.49864274566993 0.502196613643318 4.33129509910941
428 137 5 0 6.73864274566993 -0.427803386356682 4.33129509910941
429 138 5 0 2.75746275714599 8.82294765481725 8.1982141721528
430 138 6 0 3.71746275714599 8.82294765481725 8.1982141721528
431 138 5 0 3.95746275714599 7.89294765481725 8.1982141721528
432 139 5 0 13.9038689194433 0.824041603310034 7.91081322706304
433 139 6 0 14.8638689194433 0.824041603310034 7.91081322706304
434 139 5 0 15.1038689194433 -0.105958396689966 7.91081322706304
435 140 5 0 2.93401890710928 9.50660023995675 3.18282198510133
436 140 6 0 3.89401890710928 9.50660023995675 3.18282198510133
437 140 5 0 4.13401890710928 8.57660023995675 3.18282198510133
438 141 5 0 5.48841224910691 12.9200993424188 14.0551265375689
439 141 6 0 6.44841224910691 12.9200993424188 14.0551265375689
440 141 5 0 6.68841224910691 11.9900993424188 14.0551265375689
441 142 5 0 6.29369487214834 13.9339495431073 6.30820653866976
442 142 6 0 7.25369487214834 13.9339495431073 6.30820653866976
443 142 5 0 7.49369487214834 13.0039495431073 6.30820653866976
444 143 5 0 4.09871637166478 14.857701398842 10.9426101017743
445 143 6 0 5.05871637166478 14.857701398842 10.9426101017743
446 143 5 0 5.29871637166478 13.927701398842 10.9426101017743
447 144 5 0 12.6296404567268 9.05700382817537 6.80265927454457
448 144 6 0 13.5896404567268 9.05700382817537 6.80265927454457
449 144 5 0 13.8296404567268 8.12700382817537 6.80265927454457
450 145 5 0 5.98282665872946 7.2770572434552 2.2487581288442
451 145 6 0 6.94282665872946 7.2770572434552 2.2487581288442
452 145 5 0 7.18282665872946 6.3470572434552 2.2487581288442
453 146 5 0 4.9047084599454 14.0047243113536 10.2286049688701
454 146 6 0 5.8647084599454 14.0047243113536 10.2286049688701
455 146 5 0 6.1047084599454 13.0747243113536 10.2286049688701
456 147 5 0 3.35915485091507 2.1598427758459 11.1347960913554
457 147 6 0 4.31915485091507 2.1598427758459 11.1347960913554
458 147 5 0 4.55915485091507 1.2298427758459 11.1347960913554
459 148 5 0 7.16325207657181 13.1641236801539 4.59703765343875
460 148 6 0 8.12325207657181 13.1641236801539 4.59703765343875
461 148 5 0 8.36325207657181 12.2341236801539 4.59703765343875
462 149 5 0 7.62137025056407 7.28873865487054 9.94990860228427
463 149 6 0 8.58137025056407 7.28873865487054 9.94990860228427
464 149 5 0 8.82137025056407 6.35873865487054 9.94990860228427
465 150 5 0 0.841625126050785 6.31710973842069 4.18961612158455
466 150 6 0 1.80162512605079 6.31710973842069 4.18961612158455
467 150 5 0 2.04162512605079 5.38710973842069 4.18961612158455
468 151 5 0 4.77738695961423 5.35643328720704 2.44686809484847
469 151 6 0 5.73738695961423 5.35643328720704 2.44686809484847
470 151 5 0 5.97738695961423 4.42643328720704 2.44686809484847
471 152 5 0 2.96822419666685 2.41446254815906 6.1697188031394
472 152 6 0 3.92822419666685 2.41446254815906 6.1697188031394
473 152 5 0 4.16822419666685 1.48446254815906 6.1697188031394
474 153 5 0 1.15783389003016 10.7537928460538 5.37948993500322
475 153 6 0 2.11783389003016 10.7537928460538 5.37948993500322