LAMMPS (29 Sep 2021 - Update 1)
Reading data file ...
  triclinic box = (0.0000000 0.0000000 0.0000000) to (15.000000 15.000000 15.000000) with tilt (0.0000000 0.0000000 0.0000000)
  2 by 4 by 4 MPI processor grid
  reading atoms ...
  1520 atoms
  scanning bonds ...
  3 = max bonds/atom
  scanning angles ...
  6 = max angles/atom
  scanning dihedrals ...
  10 = max dihedrals/atom
  scanning impropers ...
  2 = max impropers/atom
  reading bonds ...
  1021 bonds
  reading angles ...
  536 angles
  reading dihedrals ...
  52 dihedrals
  reading impropers ...
  8 impropers
Finding 1-2 1-3 1-4 neighbors ...
  special bond factors lj:    0        0        1       
  special bond factors coul:  0        0        1       
     4 = max # of 1-2 neighbors
     7 = max # of 1-3 neighbors
    10 = max # of special neighbors
  special bonds CPU = 0.002 seconds
  read_data CPU = 0.017 seconds
WARNING: Using 'neigh_modify every 1 delay 0 check yes' setting during minimization (../min.cpp:188)
Neighbor list info ...
  update every 1 steps, delay 0 steps, check yes
  max neighbors/atom: 10000, page size: 100000
  master list distance cutoff = 13
  ghost atom cutoff = 13
  binsize = 6.5, bins = 3 3 3
  3 neighbor lists, perpetual/occasional/extra = 3 0 0
  (1) pair hbond/dreiding/lj, perpetual, skip from (3)
      attributes: full, newton on
      pair build: skip
      stencil: none
      bin: none
  (2) pair lj/cut, perpetual, half/full from (3)
      attributes: half, newton on
      pair build: halffull/newton
      stencil: none
      bin: none
  (3) neighbor class addition, perpetual
      attributes: full, newton on
      pair build: full/bin
      stencil: full/bin/3d
      bin: standard
Setting up cg style minimization ...
  Unit style    : real
  Current step  : 0
WARNING: Energy due to 1 extra global DOFs will be included in minimizer energies
Per MPI rank memory allocation (min/avg/max) = 14.97 | 15.33 | 15.92 Mbytes
Step Temp E_pair E_mol TotEng Press Volume 
       0            0 8.9861461e+17    394.46047 8.9861461e+17 7.3027057e+19         3375 
    5614            0   -1009.4549    43.065034   -966.38984    97.920056     36313.31 
Loop time of 4.99654 on 32 procs for 5614 steps with 1520 atoms

100.0% CPU use with 32 MPI tasks x no OpenMP threads

Minimization stats:
  Stopping criterion = energy tolerance
  Energy initial, next-to-last, final = 
    8.98614606876238e+17  -965.827789821747  -965.909465130789
  Force two-norm initial, final = 1.9291386e+20 102.27641
  Force max component initial, final = 1.0795585e+20 69.750279
  Final line search alpha, max atom move = 1.2762668e-05 0.00089019968
  Iterations, force evaluations = 5614 5616

MPI task timing breakdown:
Section |  min time  |  avg time  |  max time  |%varavg| %total
---------------------------------------------------------------
Pair    | 1.4863     | 2.6975     | 3.9783     |  42.8 | 53.99
Bond    | 0.0070274  | 0.012358   | 0.042081   |   5.2 |  0.25
Neigh   | 0.09583    | 0.09615    | 0.096574   |   0.1 |  1.92
Comm    | 0.54867    | 1.829      | 3.0421     |  52.0 | 36.61
Output  | 0          | 0          | 0          |   0.0 |  0.00
Modify  | 0          | 0          | 0          |   0.0 |  0.00
Other   |            | 0.3615     |            |       |  7.24

Nlocal:        47.5000 ave          69 max          26 min
Histogram: 2 2 0 8 5 2 7 2 2 2
Nghost:        2039.84 ave        2077 max        2009 min
Histogram: 4 5 4 2 1 3 5 2 5 1
Neighs:        5162.31 ave        8769 max        2585 min
Histogram: 2 3 5 8 3 5 3 1 1 1

Total # of neighbors = 165194
Ave neighs/atom = 108.68026
Ave special neighs/atom = 2.0486842
Neighbor list builds = 95
Dangerous builds = 0
1500 atoms in group WAT
20 atoms in group MOL
Neighbor list info ...
  update every 2 steps, delay 10 steps, check yes
  max neighbors/atom: 10000, page size: 100000
  master list distance cutoff = 13
  ghost atom cutoff = 13
  binsize = 6.5, bins = 6 6 6
  4 neighbor lists, perpetual/occasional/extra = 3 1 0
  (1) pair hbond/dreiding/lj, perpetual, skip from (4)
      attributes: full, newton on
      pair build: skip
      stencil: none
      bin: none
  (2) pair lj/cut, perpetual, half/full from (4)
      attributes: half, newton on
      pair build: halffull/newton
      stencil: none
      bin: none
  (3) compute group/group, occasional, copy from (2)
      attributes: half, newton on
      pair build: copy
      stencil: none
      bin: none
  (4) neighbor class addition, perpetual
      attributes: full, newton on
      pair build: full/bin
      stencil: full/bin/3d
      bin: standard
Setting up Verlet run ...
  Unit style    : real
  Current step  : 5614
  Time step     : 1
Per MPI rank memory allocation (min/avg/max) = 13.82 | 13.87 | 14.39 Mbytes
Step Temp E_pair E_mol TotEng Press Volume 
    5614          300   -1009.4549    43.065034     391.9653     1807.858     36313.31 
    5700    290.82122    -1109.351    242.42871    449.87268     71.58815     36313.31 
    5800    295.33843   -1089.5366    175.54436    423.25608     156.2009     36313.31 
    5900    302.94154   -1063.7875    206.83341    514.71989    337.20904     36313.31 
    6000    292.61173   -1098.6449     221.8834    448.14067   -174.31741     36313.31 
    6100     292.5066   -1085.8587    205.49911    444.06651   -466.50323     36313.31 
    6200    292.94848   -1085.4846    203.07172    444.01407    412.35497     36313.31 
    6300    298.62025   -1029.7702    208.92223    531.25984    149.66392     36313.31 
    6400    306.47835   -1069.8837    208.54102    526.34544   -96.352337     36313.31 
    6500    304.96297   -1074.7432    199.16821    505.25176   -60.736365     36313.31 
    6600    295.39227   -1028.6036    237.12716    546.01554   -201.89853     36313.31 
    6700    299.13259   -1064.1267    229.38654     519.6875     78.70771     36313.31 
    6800    296.77739   -1049.1075    227.04137     521.6975   -138.51544     36313.31 
    6900    290.89783   -1036.3727    214.44208    495.21125   -271.94774     36313.31 
    7000     302.3082   -1072.4008    237.67178    534.07733   -3.2165987     36313.31 
    7100    303.45969   -1075.2252      220.538    519.33289    384.06603     36313.31 
    7200    307.62306    -1113.015    238.08769     517.9439    754.98362     36313.31 
    7300    287.69542   -1139.5634    229.23306    392.31154   -75.110023     36313.31 
    7400    292.10363    -1119.044    230.51289    434.07039    397.27601     36313.31 
    7500    302.26342   -1114.0405    239.23803    493.80112    304.35138     36313.31 
    7600    307.69104   -1068.7049    235.40421    559.87829    162.07725     36313.31 
    7700    308.75569   -1073.6176    243.78663    568.16863     233.6757     36313.31 
    7800    274.66632   -1073.2516    243.87415    414.27059    201.80547     36313.31 
    7900    299.64227   -1069.2345     235.8248    523.32568    483.43546     36313.31 
    8000     308.1307   -1071.2904    245.68574     569.5651    395.02238     36313.31 
    8100    296.99207   -1056.9638    253.30024    541.07208    481.81309     36313.31 
    8200    301.73735   -1017.7101    246.98867    595.50014     580.9769     36313.31 
    8300    293.42926   -1105.7368    255.06905    477.93605    194.29715     36313.31 
    8400    305.75404   -1077.6151    244.34306     551.1365    405.50194     36313.31 
    8500     295.2038   -1086.3058    237.54057    487.87342    669.99528     36313.31 
    8600    299.61746   -1093.0317    250.86945     514.4608    945.06663     36313.31 
    8700    303.68672   -1087.7404    253.08424    540.39189    1079.8248     36313.31 
    8800    296.93655   -1074.8982    261.73558    531.32168    433.01723     36313.31 
    8900     290.7589   -1063.5977    256.74576    509.66093     365.7684     36313.31 
    9000    293.10394    -1086.112    251.51247    492.53123    493.88087     36313.31 
    9100    302.98548   -1097.2453    244.90642    519.53407    434.49575     36313.31 
    9200    303.89422    -1087.793    244.78624    532.98077    725.76705     36313.31 
    9300    303.68542   -1134.3899    258.03748    498.68969    394.72428     36313.31 
    9400    309.31379   -1092.3817    249.37629     557.5212    281.89878     36313.31 
    9500    292.88235   -1095.5377    253.83057     484.4204    365.80878     36313.31 
    9600    301.20569   -1101.1517       254.65    517.31261    118.54924     36313.31 
    9700    292.19386   -1146.9275    267.01193    443.09452    -98.55928     36313.31 
    9800    313.29035   -1064.7976    257.01484    610.74912   -185.50115     36313.31 
    9900    308.09704   -1087.6421    255.07528    562.45053    684.56112     36313.31 
   10000    304.14239   -1082.4861    273.40281    568.02801    84.006485     36313.31 
   10100     301.2996    -1084.478    256.95592    536.71742    278.66185     36313.31 
   10200    298.52183   -1084.3306    260.62867     527.9603    359.32348     36313.31 
   10300    305.07157   -1128.9827    264.26676    516.60254     347.9601     36313.31 
   10400    305.11027   -1095.6229    265.94864    551.81945    524.48007     36313.31 
   10500    307.95921   -1079.2408    255.80907    570.96152    339.71007     36313.31 
   10600    297.63418   -1103.9375    273.49482    517.20039    19.144075     36313.31 
   10700    310.21597   -1123.9558    266.02057    546.67627   -36.391822     36313.31 
   10800    300.31735   -1099.2571    264.30983    524.84475    131.20894     36313.31 
   10900    304.56176   -1073.7459    275.73403    580.99824    75.533274     36313.31 
   11000    293.15914   -1072.8898    260.80622     515.2972    150.69783     36313.31 
   11100    296.19081   -1101.6234    263.89179    503.37609    86.795601     36313.31 
   11200    296.35508   -1120.5222    287.06755    508.39686    160.22827     36313.31 
   11300    300.88329   -1123.1826    273.43372    512.60569    -136.9978     36313.31 
   11400    292.30089   -1125.9831    268.40022    465.91184     212.1853     36313.31 
   11500    301.57529   -1100.4742    277.68725    542.70084    408.91705     36313.31 
   11600    307.16172   -1076.3889    285.73285     600.1263    575.19661     36313.31 
   11700    313.50807   -1082.2099    279.48736    616.79507    1172.6126     36313.31 
   11800    293.58009    -1099.754    285.17836    514.71112    531.24954     36313.31 
   11900    297.05278   -1093.1283    289.72452    541.60679    441.99186     36313.31 
   12000    305.23708   -1099.3923    283.61518    566.29079    482.72153     36313.31 
   12100    293.33939   -1073.6837    299.74418    554.25739    314.29054     36313.31 
   12200    297.55962   -1108.9129    298.00392    536.39652    256.73521     36313.31 
   12300    301.05179   -1085.4742    265.46479    543.10809    -54.82336     36313.31 
   12400    305.06839   -1118.7549    276.94171    539.49082   -542.24166     36313.31 
   12500    293.45092   -1112.6019    282.23837    498.33829    -303.0684     36313.31 
   12600    295.86228   -1118.5296    288.67676    509.76736    312.49931     36313.31 
   12700    295.37504   -1118.0722    282.06115    501.40293    339.10849     36313.31 
   12800    293.58152   -1129.6838    281.83741    481.44687   -96.619824     36313.31 
   12900    302.07071    -1137.431    273.01423    503.31425    612.17269     36313.31 
   13000    301.79177   -1134.9423    295.93022    527.45596    623.71787     36313.31 
   13100    290.60438   -1096.5173    278.41043    497.70629    172.62278     36313.31 
   13200    305.69469   -1124.3403    284.71123    544.51074     297.2173     36313.31 
   13300    306.18088   -1083.0964     292.1397     595.3845    444.45198     36313.31 
   13400    303.45973   -1109.9688    272.19913    536.25062    610.60832     36313.31 
   13500    307.12446   -1104.1936    287.90631    574.32636    35.189718     36313.31 
   13600     290.1195   -1145.8191    299.00795    466.80654    6.0724686     36313.31 
   13700    305.71022   -1115.6728    273.33272    541.87006    299.62417     36313.31 
   13800    292.27064   -1114.4883    287.92776    496.79722    643.56504     36313.31 
   13900    289.61908   -1132.3263    284.62202    463.64757    522.26536     36313.31 
   14000    295.62921   -1132.3118    289.25436    495.50739    226.24429     36313.31 
   14100    303.74764   -1119.5847     300.5829    556.32208    309.17817     36313.31 
   14200    292.74771   -1094.2135    316.87106    548.17538   -284.73958     36313.31 
   14300    300.22434   -1100.4029    294.89639    553.86443    101.69698     36313.31 
   14400    304.53093   -1114.1164    304.31187    569.06601    545.77194     36313.31 
   14500    289.91902   -1097.8222     299.0143    513.90203     39.28256     36313.31 
   14600    293.93886   -1159.6203    302.54806    473.83899    87.073161     36313.31 
   14700     300.0458    -1174.373    306.14597    490.33544    35.565654     36313.31 
   14800    307.19508   -1168.6305    296.16899    518.47187    340.41367     36313.31 
   14900    309.83464   -1167.8662    294.08563    529.10428    392.02088     36313.31 
   15000    303.02685   -1156.2346    300.88605    516.71168    282.01647     36313.31 
   15100     309.9491   -1195.6227     298.1462    505.92673     53.16711     36313.31 
   15200    300.94847   -1204.6713    300.57185    458.55025   -27.651991     36313.31 
   15300     296.0547   -1201.3557    312.92489    452.06062    297.47682     36313.31 
   15400    300.13447   -1177.6015     281.8571    463.21963    128.05705     36313.31 
   15500    298.88982   -1154.6753    310.00729    508.66035   -37.347545     36313.31 
   15600    301.19198   -1165.5839    299.26021    497.42858    52.710737     36313.31 
   15700    303.59675   -1206.9555    281.50504    449.19021    323.14798     36313.31 
   15800    309.99023   -1156.9155    314.66511    561.33903    852.97517     36313.31 
   15900    298.28075   -1135.6705    317.42407    532.32423    333.99064     36313.31 
   16000    299.35537   -1129.3401    307.91109    534.00738    799.72412     36313.31 
   16100    294.44491   -1151.1848    308.80592    490.82364    84.054229     36313.31 
   16200    290.47393    -1119.603    334.87762    530.49714    164.09798     36313.31 
   16300    309.31356   -1131.6986    319.42961    588.25656   -24.226606     36313.31 
   16400    304.11594    -1147.262    299.46011    529.18967    177.01456     36313.31 
   16500    304.47957   -1178.1347    326.17405    526.67734   -587.08891     36313.31 
   16600    290.95251   -1145.4077    316.66144    488.64322    -481.5634     36313.31 
   16700    289.08288    -1156.696    295.09448    447.32247    187.12246     36313.31 
   16800    298.86591    -1178.383    343.86688    518.70401   -119.20371     36313.31 
   16900     292.7199     -1179.87     325.0781    470.60006   -96.730266     36313.31 
   17000    288.12478   -1164.1017    316.94492    457.42916    -111.3232     36313.31 
   17100    300.52623   -1156.1893    327.70496    532.25349   -143.05296     36313.31 
   17200    304.58119   -1177.0235    324.57413    526.64873   -84.828896     36313.31 
   17300    295.89242   -1213.3618    328.18417    454.57903   -183.71592     36313.31 
   17400    312.29139   -1161.7785    341.02595    593.25618    181.63471     36313.31 
   17500    295.38105   -1142.9414    339.31196    533.81176    151.55608     36313.31 
   17600    296.47789    -1119.567    339.00264    561.84318    228.75835     36313.31 
   17700    329.73127   -1107.4592    336.14568     721.6604    1043.4015     36313.31 
   17800    302.94611   -1172.3181    347.96348    547.34013    836.19102     36313.31 
   17900    296.61553   -1138.9199    346.29651    550.40738     97.90059     36313.31 
   18000    295.04452   -1182.4882    327.61337    481.04266    275.88274     36313.31 
   18100    298.14266   -1204.8666    359.54538    504.62416    313.96607     36313.31 
   18200    300.53111   -1232.6516    328.54811    456.65642    380.33993     36313.31 
   18300    293.99486   -1141.9157    333.99741    523.24648   -47.673552     36313.31 
   18400    299.70781    -1149.143    354.16832    562.05741    38.273159     36313.31 
   18500    292.62088   -1176.5856    336.87872    485.23673    278.05181     36313.31 
   18600    304.53049   -1137.0709    351.08991     592.8875   -99.995213     36313.31 
   18700    302.29011   -1136.0563    322.14701    554.81511    367.38811     36313.31 
   18800    301.56852   -1185.4543    329.15276    509.15557    723.80745     36313.31 
   18900    287.72665   -1154.1288    369.62963    518.28405    541.03076     36313.31 
   19000    309.77819    -1176.165    345.36903     571.8333   -266.06419     36313.31 
   19100    306.80132   -1148.3086    339.64112    580.48301     321.5561     36313.31 
   19200    306.83408   -1140.5822    354.29566    603.01228   -93.673277     36313.31 
   19300    297.17775   -1153.5548    342.82397    534.84556    -171.4211     36313.31 
   19400    287.87853   -1173.8502    351.61831    481.23902   -169.70344     36313.31 
   19500    299.76773   -1161.7053    350.91493     546.5131    455.84149     36313.31 
   19600    295.49898   -1167.2238    355.59603     526.3474    510.31483     36313.31 
   19700    298.59868   -1160.5195    349.13254     540.6232    563.08543     36313.31 
   19800    303.06941    -1139.748    332.23608    564.74105    355.84668     36313.31 
   19900    293.20174   -1195.8964    346.79676    478.47397    -204.3261     36313.31 
   20000    293.78204   -1166.1267    344.61262    508.68708   -19.003773     36313.31 
   20100    298.85313   -1133.4829    360.50834     580.1877    369.20232     36313.31 
   20200    304.65221   -1165.0228    351.19628    565.59316    675.78813     36313.31 
   20300    298.46591   -1172.9738    354.68835    533.12354    601.01095     36313.31 
   20400    310.90106   -1132.6845    336.38185    611.41088   -54.131418     36313.31 
   20500    295.50356   -1110.0661    353.92841    581.85819   -41.400447     36313.31 
   20600    307.68248   -1184.5422     366.8764    575.47447     209.3729     36313.31 
   20700    300.01719   -1121.3058    369.30806    606.43517    131.92857     36313.31 
   20800    302.20949   -1138.8558       341.09    570.59358   -146.23976     36313.31 
   20900    298.29781   -1119.5262    348.52093    579.64264   -330.06562     36313.31 
   21000    299.95717   -1163.9424     339.4758    533.69459   -290.52641     36313.31 
   21100    300.39122   -1112.3848    358.49253    606.23421   -77.695294     36313.31 
   21200     306.9186    -1137.981     352.5438    604.24431   -480.16228     36313.31 
   21300    307.38663   -1121.1085    379.12642    649.81867    433.20234     36313.31 
   21400    287.15839   -1170.6343    346.19826    475.77415    118.11129     36313.31 
   21500    292.95499   -1190.9672    349.05388    484.54302    115.88475     36313.31 
   21600    305.43564   -1151.4283    358.57548    590.11408    805.86034     36313.31 
   21700    307.46507   -1176.1814    358.34956    574.32405    942.30371     36313.31 
   21800    302.88321     -1185.61    341.58458    527.38447    400.74455     36313.31 
   21900     293.5738   -1185.1161    369.80477    513.94693    210.24985     36313.31 
   22000    311.33441    -1203.662    338.60268    544.61636    843.83401     36313.31 
   22100    301.31838   -1225.9505    345.08699    483.46104    572.34596     36313.31 
   22200    294.37071   -1231.4845    353.72956    455.11166    200.46964     36313.31 
   22300    300.80853   -1223.2334    351.88008    490.66274    387.68405     36313.31 
   22400    297.37548   -1218.7203    345.35694    473.10833    173.87507     36313.31 
   22500    297.24889   -1236.4292    342.49936    451.96873    285.77298     36313.31 
   22600    288.09423   -1202.1872    356.89036    459.15075    138.32581     36313.31 
   22700    297.43631   -1229.6553    365.29993    482.39179   -240.60394     36313.31 
   22800    297.54537    -1225.942     364.4579    485.75681   -135.23494     36313.31 
   22900      311.683   -1197.3973     360.5732    574.42998       8.9364     36313.31 
   23000    302.14065   -1137.9295     350.4054    580.52357    -280.6761     36313.31 
   23100    295.21529   -1199.6379    354.23905    491.29183       84.757     36313.31 
   23200    306.19443   -1247.9187    351.59371    490.07757    65.752186     36313.31 
   23300    303.60622    -1269.712    362.01519    466.98677    250.07563     36313.31 
   23400    301.30728   -1235.8498    370.38889    498.81345    301.47956     36313.31 
   23500    311.75332   -1194.5707    367.77803     584.7797    626.71852     36313.31 
   23600    301.78311   -1184.9868    358.51064    539.95263    518.79126     36313.31 
   23700     304.4294   -1182.0609    358.30512    554.65507    916.21843     36313.31 
   23800    305.48997    -1229.259    381.14542     535.0993    255.95679     36313.31 
   23900    309.52126   -1176.8797    381.34631    605.93259   -121.22017     36313.31 
   24000    298.96351   -1179.9683    353.10629    526.80001    391.36437     36313.31 
   24100     293.3529   -1196.1621    352.36712    484.46311    228.13791     36313.31 
   24200    287.47165    -1209.164    358.31876    450.78338    227.83278     36313.31 
   24300    291.98677   -1230.8572    368.34996     459.5652    2.0804855     36313.31 
   24400    296.50408   -1237.3262    371.60343    476.80331    251.10797     36313.31 
   24500      303.118     -1226.55    363.38799    509.31092    268.29286     36313.31 
   24600      300.405   -1207.2634    372.08309    525.00859    785.89511     36313.31 
   24700    290.20935   -1189.9397    365.52749    489.61235    648.83147     36313.31 
   24800    306.18349   -1184.9936    363.16948    564.52897   -11.796584     36313.31 
   24900    294.11381   -1273.8629    377.36151    435.20194   -300.10689     36313.31 
   25000    286.08806   -1222.3904    386.16175    459.13533   -231.12792     36313.31 
   25100    302.38678   -1187.2623    355.91256    537.81231    203.72812     36313.31 
   25200    313.89204   -1189.7822    377.99848    609.47247   -260.95655     36313.31 
   25300     287.3326   -1206.4924    365.43038    459.93707   -35.032261     36313.31 
   25400    299.59763   -1203.7008    364.66067    517.49319    230.07287     36313.31 
   25500    300.53762    -1231.985    369.98683    498.79125   -276.81644     36313.31 
   25600    291.18637   -1236.6347     359.7414    441.55507    30.659533     36313.31 
   25700    300.51995   -1217.9445    359.08849    501.85338   -188.65526     36313.31 
   25800    301.09273   -1201.8259    365.88646    527.36341    25.413667     36313.31 
   25900    299.44903   -1245.5082    355.80946    466.16172    21.416578     36313.31 
   26000    288.14679   -1255.2692    362.65869    412.07504   -147.14452     36313.31 
   26100    306.36924   -1262.0211    374.46357    499.63658   -122.32431     36313.31 
   26200    289.58606   -1254.8513    363.70927    420.06033    203.68555     36313.31 
   26300    296.97794    -1234.126    374.74085    485.28656    397.14123     36313.31 
   26400     296.2109   -1202.6567    387.14906    525.69103    181.17566     36313.31 
   26500    298.83628    -1211.829    383.95191    525.20891    199.78629     36313.31 
   26600    299.06957   -1201.7749     376.2667     528.6341    392.03827     36313.31 
   26700    305.33473   -1200.8151    376.90772    558.60259    211.00115     36313.31 
   26800    305.27507   -1237.9196    361.27339     505.5936    481.06234     36313.31 
   26900    297.18052   -1239.0296    368.74192    475.30124   -212.62812     36313.31 
   27000    288.68138   -1236.9517    367.43518    437.58964   -65.952226     36313.31 
   27100    312.78532    -1204.732    368.47966     579.9928    453.47461     36313.31 
   27200    297.12698   -1224.3596    386.72366    507.71054    144.26487     36313.31 
   27300    308.01314   -1230.2102    368.99064    533.41787    508.00787     36313.31 
   27400    304.05666    -1228.908    376.65271    524.46782    118.26946     36313.31 
   27500    293.32101   -1246.6844     371.5929    453.02217   -313.37694     36313.31 
   27600    297.28656   -1241.5185     379.9713     484.5219   -148.31309     36313.31 
   27700    291.82485   -1242.0468    379.61069    458.90318   -118.12159     36313.31 
   27800    305.52051   -1230.8802    377.41748    529.88846    194.78539     36313.31 
   27900     302.1428   -1251.0035    374.32078    491.37465   -95.792745     36313.31 
   28000    312.07512   -1225.8316    373.77352    560.97142   -284.42346     36313.31 
   28100    300.44176   -1210.9422    391.22264    540.63586    208.81708     36313.31 
   28200     307.7767   -1233.2946     376.7786    537.05082    190.25032     36313.31 
   28300    301.07786    -1233.716    393.17549    522.69502    649.70831     36313.31 
   28400    311.90595   -1222.6829    372.77604    562.35662    526.52346     36313.31 
   28500     298.5003   -1269.9544    372.23218    453.84249   -111.03866     36313.31 
   28600    298.40365   -1288.0756     372.7649    435.81643   -91.552981     36313.31 
   28700    295.81039    -1256.373    368.94501    451.95727   -87.965756     36313.31 
   28800    304.51584    -1246.701    376.15956    508.26074   -88.133719     36313.31 
   28900    304.25853   -1259.1361    372.47683    490.97785   -473.85987     36313.31 
   29000    307.39422   -1271.6454    358.80745    478.99713   -316.68507     36313.31 
   29100    302.94912   -1260.9493    370.49359    481.25264   -162.63857     36313.31 
   29200    303.01937   -1311.3102    384.47021    445.18642   -377.22959     36313.31 
   29300    295.73646   -1296.8005    375.00584     417.2558    744.69905     36313.31 
   29400    302.89469   -1267.2508    373.52251    477.73356    447.25281     36313.31 
   29500    298.59686    -1281.903    368.11175    438.21063    353.75161     36313.31 
   29600    295.03076   -1215.8999     380.1573    500.11255    531.16022     36313.31 
   29700    295.23284   -1218.7147    377.72637    495.78178   -57.931325     36313.31 
   29800    298.13462   -1224.2944    390.09084    515.70545    203.42947     36313.31 
   29900    296.37811   -1231.3715    383.92045    494.50474   -183.91315     36313.31 
   30000    296.31574   -1251.9219    368.68574    458.43722   -76.465908     36313.31 
   30100    291.07568   -1241.3788     394.3483    470.91664     80.01384     36313.31 
   30200    307.24522   -1239.9718    378.49787    529.68646    206.79206     36313.31 
   30300     286.6293    -1243.707    389.80968    443.91725    171.86625     36313.31 
   30400    298.25532   -1192.1761    391.96254    550.24188    304.95364     36313.31 
   30500    292.85155   -1219.9803    385.15357    491.16128    591.98673     36313.31 
   30600    296.12606   -1271.9335    367.14958    436.03064     266.2692     36313.31 
   30700    300.41694   -1257.0974    400.93292    504.07853    246.87868     36313.31 
   30800    299.53357   -1245.4642    386.72099    497.50002    706.10968     36313.31 
   30900    300.36177   -1242.6257    383.57716    500.94468    682.28088     36313.31 
   31000    299.72241   -1251.8198    395.21887     500.4973    360.98894     36313.31 
   31100     298.7484    -1271.663    389.26948    470.29451    478.43764     36313.31 
   31200    299.93918   -1254.5099    383.89851    487.46831    146.82979     36313.31 
   31300    293.52594   -1290.7253    367.59928     405.9155     186.0422     36313.31 
   31400     297.1265   -1225.6192    395.47807     515.2032    668.73966     36313.31 
   31500    302.18739   -1179.9368    380.43504    568.75753    378.92936     36313.31 
   31600    295.44898   -1248.7565    402.63749     491.6298   -214.18196     36313.31 
   31700     307.5023   -1274.0235    426.41028    544.71121   -460.65799     36313.31 
   31800    296.26824   -1299.8855     386.5321    428.10488   -496.57024     36313.31 
   31900    298.03653   -1300.2889    390.02954     439.2055   -403.14683     36313.31 
   32000    305.51164   -1248.3459    405.11184    540.07695   -390.65759     36313.31 
   32100    296.23579   -1270.8824    375.18509    445.61405   -141.00851     36313.31 
   32200    302.87633   -1263.6938    392.02814    499.71311   -51.797054     36313.31 
   32300    300.69458   -1308.6123    404.09318    456.98103   -60.229089     36313.31 
   32400    296.27624   -1264.2043    399.59148     476.8817    69.871931     36313.31 
   32500    302.17408   -1262.1506    397.07854    503.12701   -35.333352     36313.31 
   32600    303.78366   -1270.3264    398.38144    503.54207   -81.260499     36313.31 
   32700    289.92671   -1278.3788    383.24613    417.61209    87.325616     36313.31 
   32800    296.06667   -1260.8084     407.6017    487.33891    54.331837     36313.31 
   32900    301.42391   -1287.4731    399.09081    476.42007    138.63145     36313.31 
   33000    315.43359   -1307.8813    398.75213     519.1069    355.57244     36313.31 
   33100      294.298   -1300.4771    388.14039    420.20059    366.94574     36313.31 
   33200     303.0597    -1299.927    396.39215    468.67414    305.46209     36313.31 
   33300    301.45296   -1295.4764    398.83091    468.28839   -210.03302     36313.31 
   33400    305.61115   -1251.4757     401.8661    534.15194   -35.721279     36313.31 
   33500    300.32153   -1261.7452    403.11609    501.18188   -473.49697     36313.31 
   33600    294.59999   -1245.9544     396.9807    484.93096    427.16427     36313.31 
   33700    302.99703   -1253.1382    402.76047    521.54745    284.46051     36313.31 
   33800    296.22622   -1284.2896    410.39161    467.37008    141.61626     36313.31 
   33900    300.18274   -1292.5177    412.47277    479.13763   -34.724133     36313.31 
   34000    297.34211   -1254.4103    389.30106    481.21131    17.536337     36313.31 
   34100    296.43778   -1248.5572    377.19293    470.86169    381.36304     36313.31 
   34200    302.97323    -1269.065    405.97875    508.73126   -397.79204     36313.31 
   34300    305.90013   -1274.5643    416.17921    526.68493    173.75207     36313.31 
   34400    293.08197   -1285.5631    402.78752    444.25574   -124.72992     36313.31 
   34500    292.18442   -1221.0742    394.99929    496.89243   -127.04003     36313.31 
   34600    291.93886   -1260.7701    414.71504    475.80038   -109.72641     36313.31 
   34700    297.29183   -1279.5415    394.11865    460.67011   -270.67736     36313.31 
   34800    297.78453   -1240.8063    423.16272    530.68029    108.85725     36313.31 
   34900    303.97998   -1264.3832    422.53166    534.52433    91.995242     36313.31 
   35000    292.01864   -1270.3748    394.16877    446.01068    622.32066     36313.31 
   35100    299.52981   -1277.5898    421.38831    500.02467    643.75856     36313.31 
   35200    291.82629   -1244.0008    397.85641    475.20142    844.16076     36313.31 
   35300    297.45859   -1239.0454    402.49706    510.29966    74.982146     36313.31 
   35400    300.81711   -1244.8167    379.58539    496.82357    156.12677     36313.31 
   35500    301.63188     -1272.27    394.49474    487.96874    357.23926     36313.31 
   35600    303.85516   -1293.7623    391.85432     473.9028    271.81601     36313.31 
   35700    290.67161   -1275.4898    402.12072    442.74847    158.16747     36313.31 
   35800    289.19812   -1261.9191    402.06142    449.58813    584.57404     36313.31 
   35900    304.32287   -1292.6617    385.03476    470.30149     222.0844     36313.31 
   36000    311.35955   -1270.1321     409.0015    548.65886    -224.7774     36313.31 
   36100     284.6927   -1232.1434    420.66243    477.56499    146.63238     36313.31 
   36200    284.77798   -1236.5947    386.42556    439.26298    178.19237     36313.31 
   36300    293.12315   -1240.6731    379.88918    466.43386    214.86057     36313.31 
   36400    300.51139   -1282.4321    401.22456    479.46303   -367.82285     36313.31 
   36500    295.48158   -1278.8772    404.16062    463.17986   -10.613381     36313.31 
   36600    295.73213   -1270.2586    404.05152    472.82378    175.89761     36313.31 
   36700    301.90742   -1307.3931    376.21943    435.81802   -110.65476     36313.31 
   36800    304.90585   -1278.1943    390.23503    492.60886    1194.5044     36313.31 
   36900    300.90244   -1233.0784    408.92254    538.28545    1221.6091     36313.31 
   37000    300.94061   -1237.7114    416.35467    541.25735    799.66357     36313.31 
   37100    306.49645   -1286.1314    408.80495    510.44366    242.18871     36313.31 
   37200    304.86567   -1313.0592    412.83621    480.16322    519.54779     36313.31 
   37300    305.83949   -1266.0326    398.85183    517.61467    645.38064     36313.31 
   37400    303.12843   -1232.6428    416.62566    556.50312    455.65547     36313.31 
   37500    308.72283   -1266.8532    391.93128    522.92892    -244.4422     36313.31 
   37600    294.00971   -1273.4762    404.91057     462.6664   -274.39713     36313.31 
   37700    299.15987   -1233.3141    414.05019    535.28729   -142.78806     36313.31 
   37800     288.4826   -1245.5541    391.02198    451.67402   -132.51708     36313.31 
   37900    288.98201   -1258.4977    416.36918    466.33881   -387.82749     36313.31 
   38000    306.45519   -1278.5933    411.39765    520.38761    77.164003     36313.31 
   38100    305.52917   -1256.8531    425.17754    551.71481    314.64929     36313.31 
   38200    310.72652    -1260.992    450.74965    596.68085    243.03035     36313.31 
   38300    297.47671   -1251.6269    407.47803    502.78115    493.77674     36313.31 
   38400    310.52226   -1256.9488    416.47734    565.52695    405.21672     36313.31 
   38500    283.07501    -1246.135    395.86994     431.4563    208.58477     36313.31 
   38600    300.34999   -1260.9249    429.00453    528.01949   -448.56163     36313.31 
   38700    294.41396   -1255.4501    420.93291    498.54516    35.101669     36313.31 
   38800    307.93574   -1253.9448    414.76334    555.10555    550.68739     36313.31 
   38900    297.16448   -1279.1877    412.98307    479.31171     238.2508     36313.31 
   39000    296.90851   -1233.6288    420.55703    531.28557    659.99454     36313.31 
   39100    298.44686   -1279.7382    412.61558    484.20013    299.81475     36313.31 
   39200    299.91912   -1280.6917    417.41908    494.71625    1268.4949     36313.31 
   39300    300.86667   -1266.8501    421.64384    517.07302       253.21     36313.31 
   39400    299.53712   -1237.8425    397.37589    515.79262    814.27098     36313.31 
   39500    305.02832   -1251.6484    405.14715     534.6214    969.37578     36313.31 
   39600    302.85779   -1240.7236    424.80878    555.37998     857.4208     36313.31 
   39700    303.14825   -1284.4675    429.61564    517.75814    23.678865     36313.31 
   39800    294.09029   -1193.3078     425.4541    563.74316    207.28517     36313.31 
   39900    302.90927   -1223.5278    430.31385    578.31391   -126.15591     36313.31 
   40000    288.18075    -1252.186    408.27039    460.92375   -106.24824     36313.31 
   40100    297.05079   -1237.0757    417.36188    525.28772    196.36665     36313.31 
   40200    310.20926   -1270.1734    427.93239    562.34017   -896.42262     36313.31 
   40300    303.57615   -1296.2287    408.90144     487.2201   -224.69272     36313.31 
   40400    296.64699   -1281.9482    420.15562     481.3806    230.38512     36313.31 
   40500    293.64067   -1313.9052    423.04831    438.70418    564.94886     36313.31 
   40600    309.32683   -1339.9849    422.19625    482.79701   -300.00918     36313.31 
   40700    294.71831   -1315.6065    423.33216    442.16611   -153.81683     36313.31 
   40800    300.06369   -1302.3449    401.35134    457.64991    -90.53985     36313.31 
   40900    301.80362   -1282.8361    410.83653    494.52214   -383.85431     36313.31 
   41000    297.39441    -1306.058    422.45478    462.95418    381.55887     36313.31 
   41100    302.12485   -1281.5233    409.91029     496.3631    424.12151     36313.31 
   41200    294.79035   -1264.6355    406.92847    477.05957    575.88681     36313.31 
   41300     306.9757   -1262.3241    407.58624    535.20218    321.66128     36313.31 
   41400    295.62172   -1268.0849    425.42359    495.86959   -224.94459     36313.31 
   41500    299.02093   -1246.4501     408.0177    515.48968   -310.73056     36313.31 
   41600    290.41026   -1262.8752    396.96054    449.01961     58.61854     36313.31 
   41700    293.59756   -1266.6121    397.63611    460.38983     355.0611     36313.31 
   41800    298.25751   -1270.2353    422.52788    502.75795    111.21181     36313.31 
   41900     314.9378   -1302.0693    424.53818    548.46016     109.9442     36313.31 
   42000    291.43372   -1276.1436    401.23203    444.65675    52.785015     36313.31 
   42100    290.68886   -1279.3663    416.26102    453.09035    476.82852     36313.31 
   42200    298.20889    -1299.074    394.13707    445.30838    287.75063     36313.31 
   42300    299.36126   -1311.7627    384.03181    427.73209   -88.618657     36313.31 
   42400    302.85711   -1327.6727     409.4126     453.0316    177.77628     36313.31 
   42500    297.63804   -1299.3033    414.83292    463.19013    129.57856     36313.31 
   42600     302.2146   -1302.0793    419.74464    486.04782   -36.416877     36313.31 
   42700    305.74055   -1313.8692    416.12068     486.5989    404.93788     36313.31 
   42800    315.90298   -1312.9373    434.74138    552.16547    458.07229     36313.31 
   42900    294.95583   -1294.6123    442.65527    483.55883    3.2338112     36313.31 
   43000    300.28323   -1242.6696    417.16079    534.12879    379.34393     36313.31 
   43100    296.72699   -1239.7549    424.28244      528.063    359.65512     36313.31 
   43200    306.97334   -1270.1473    429.96296    549.74504    460.79927     36313.31 
   43300     293.1003   -1300.8268    423.67507    449.96262   -80.313666     36313.31 
   43400    303.40194   -1219.6595    426.46301     580.5621   -453.21334     36313.31 
   43500    289.69642   -1295.5573    437.07269    453.21751   -702.56148     36313.31 
   43600    306.85172   -1335.8495    418.03526    471.56444   -646.90439     36313.31 
   43700    302.95237   -1294.1427    415.89723    493.47758   -184.17426     36313.31 
   43800    293.19439   -1265.3895    429.62363    491.77443    360.12189     36313.31 
   43900    305.48135   -1243.0218    422.26646    562.41851    267.62698     36313.31 
   44000     297.1893   -1269.4287    433.85705    510.05707   -10.791483     36313.31 
   44100    295.97709   -1312.4539     414.2662    441.95228   0.25621309     36313.31 
   44200    295.84816   -1298.5129    432.70788    473.75125    730.29816     36313.31 
   44300    300.30751   -1290.6617      426.207    495.29285    704.47833     36313.31 
   44400    301.47347    -1332.811    406.74549    438.96126    1227.8918     36313.31 
   44500    291.00331   -1349.9699    433.36582    401.01544    248.16392     36313.31 
   44600    303.32246   -1307.8472    441.11422     506.6658    716.79826     36313.31 
   44700    297.72911   -1281.1152    451.79673    518.75441    47.524882     36313.31 
   44800    305.21822   -1238.7131    438.77349    582.04289     357.2088     36313.31 
   44900    298.06692   -1278.1883    429.16722    500.58137    125.33098     36313.31 
   45000    294.98505   -1291.1096    450.31515    494.85372    399.05392     36313.31 
   45100    304.34573   -1320.0956    444.58312    502.51944    226.19812     36313.31 
   45200    303.00677   -1335.3884    427.30019    463.88108   -146.62148     36313.31 
   45300    294.61726    -1288.995    424.74992    469.73779   -80.753689     36313.31 
   45400    299.95853   -1314.1866    424.16015    468.14096    195.92442     36313.31 
   45500    299.78714   -1319.4558    424.28973    462.22527     113.1018     36313.31 
   45600    298.17771    -1320.645    425.63329    455.09231   -252.91608     36313.31 
   45700    293.56581    -1311.057    429.95894    448.12402    225.44522     36313.31 
   45800    305.15436   -1341.5611     428.3206    468.45286   -40.835654     36313.31 
   45900     302.3631   -1354.3091      431.113    445.85875   -410.68932     36313.31 
   46000     295.6619    -1325.223    419.46018    432.95008   -301.28967     36313.31 
   46100    307.54381   -1320.4374    401.62005    473.69506    -801.5792     36313.31 
   46200    299.64401   -1348.2668    433.59481    442.07129   -227.41733     36313.31 
   46300    300.05504   -1320.3744    431.77069    470.00063    213.68654     36313.31 
   46400    302.89978   -1299.2123    417.33682    489.60944    20.961351     36313.31 
   46500    301.83756    -1277.654    413.11507     502.1364   -26.878198     36313.31 
   46600    302.58755   -1281.8829    435.42693    523.61524    248.96835     36313.31 
   46700    295.48992   -1323.9236    412.50592    426.51646    174.02437     36313.31 
   46800    296.13407   -1254.3146    422.06772    508.60393    111.63322     36313.31 
   46900    300.90114   -1255.5824    429.01583     535.8688   -562.19719     36313.31 
   47000    296.83322   -1260.1843    416.50361    500.33576    -228.4093     36313.31 
   47100    292.21599   -1270.6549    415.17658    467.63203    246.85688     36313.31 
   47200    296.05763   -1287.6575    422.71062     475.5578    166.15575     36313.31 
   47300    303.00599   -1262.0841    446.85354    556.73525   -279.58848     36313.31 
   47400    298.54782   -1275.1477    432.19555    508.82771    63.722494     36313.31 
   47500    307.35957   -1231.0017    416.02101    576.69751    368.29352     36313.31 
   47600    297.91872   -1245.7718    415.10373     518.2633   -212.52322     36313.31 
   47700    295.35839   -1280.7773    440.19963    496.76097    376.75249     36313.31 
   47800    294.64194   -1283.6789    432.69233    483.10804   -381.59974     36313.31 
   47900    291.81181   -1252.7405    426.25545     494.7952   -439.44052     36313.31 
   48000    303.71005   -1293.0519    425.48792    507.58972   -334.73387     36313.31 
   48100    282.39006   -1307.6415    437.22802    408.20649   -361.51815     36313.31 
   48200     304.3722   -1287.5952    436.44236    526.99896    160.53925     36313.31 
   48300    306.11916   -1286.7756    443.02713     542.3133   -142.78834     36313.31 
   48400    296.43022   -1274.8311    428.82511    496.18573    199.08134     36313.31 
   48500    302.04491   -1319.4953    432.41734    480.53627    13.412614     36313.31 
   48600    292.26372   -1266.3503    438.28191    495.25802   -258.07793     36313.31 
   48700    304.56727   -1284.3807    432.85844    527.51284   -43.609496     36313.31 
   48800    309.10643   -1287.0644    421.04877    533.57208    207.68097     36313.31 
   48900    301.74654   -1270.5247    446.90531    542.64377   -66.447616     36313.31 
   49000    300.97107   -1278.4326    447.36036    531.67977   -180.86402     36313.31 
   49100    292.09119   -1268.7749    421.72038    475.49076   -48.829489     36313.31 
   49200    311.95062   -1231.3998    422.76746    603.83335    346.08695     36313.31 
   49300    292.64288   -1279.1742     431.7491    477.61812   -8.3015905     36313.31 
   49400    298.85885   -1283.8895    431.58222    500.88086   -207.61822     36313.31 
   49500      299.727   -1274.7062    450.17302    532.58584   -361.93507     36313.31 
   49600    295.57092    -1317.879    441.39455    461.81652   -649.15805     36313.31 
   49700    300.72641   -1363.2677     399.7098    398.08634     144.3525     36313.31 
   49800     296.9728   -1321.0072    437.97258    461.61384    421.40686     36313.31 
   49900    308.12173   -1336.0274    440.19291    499.29466   -193.56784     36313.31 
   50000    303.88637   -1346.8174    438.75456    467.88924   -230.38196     36313.31 
   50100    302.24006   -1398.1479    413.96676    384.31668   -55.103764     36313.31 
   50200     292.3669   -1345.9979    425.97554    403.77122    301.72194     36313.31 
   50300    302.97848   -1346.2633    434.50443    460.08235    777.58689     36313.31 
   50400    299.32789   -1315.9829    416.83516     456.1642    898.38658     36313.31 
   50500     295.1676   -1289.6836    424.65698    471.44809    1136.8488     36313.31 
   50600      298.666   -1332.0807    447.43718    467.67145      958.616     36313.31 
   50700    307.91612   -1353.8921    428.10246    468.40852    562.15578     36313.31 
   50800    297.86988   -1268.9719    438.34635     518.0847    860.91451     36313.31 
   50900    300.11038   -1302.7671    452.65771    508.74553    528.06326     36313.31 
   51000    295.01871    -1314.338    439.50206    460.96469    439.18014     36313.31 
   51100     283.9316    -1370.703    436.18308    351.07996   -331.43172     36313.31 
   51200     300.7948   -1286.1751    425.41362    501.19242    505.46764     36313.31 
   51300    309.94451   -1307.9007    454.84082    550.32256   -526.60498     36313.31 
   51400     299.5242    -1265.417    444.70662    535.49042   -44.175401     36313.31 
   51500    295.35778   -1334.0791    447.69238    450.94911   -174.47075     36313.31 
   51600    302.23853   -1322.4255    414.10501    460.17039     199.8752     36313.31 
   51700    298.75642   -1328.8593    425.55953    449.42468    129.54782     36313.31 
   51800    305.15883   -1318.9124    430.76145    493.56263    221.04077     36313.31 
   51900    300.94677   -1330.1648    439.68254    472.15976   -115.28519     36313.31 
   52000    305.72008   -1272.5279    442.14153    553.86839   -98.892525     36313.31 
   52100    304.01713   -1285.2057    409.69415    501.03252   -55.666732     36313.31 
   52200    290.70005   -1296.4188    446.23026    466.05786    12.038262     36313.31 
   52300    308.37128   -1306.0847    443.71237    533.88672    189.66349     36313.31 
   52400    292.13154   -1315.9601    434.40553    441.17341   -129.62973     36313.31 
   52500    293.72867   -1360.8118    429.83138    398.97908   -598.12826     36313.31 
   52600    313.89114   -1354.0035    439.55538    506.80399   -274.28966     36313.31 
   52700     296.8628   -1351.4377    429.50491    422.21761   -220.55628     36313.31 
   52800    294.89666   -1313.3328     435.9445     457.8597   -282.72923     36313.31 
   52900    303.31455   -1325.4081    431.82676    479.78162    281.35048     36313.31 
   53000    287.97158   -1345.3339    448.81405    407.37239    109.60585     36313.31 
   53100    292.78015   -1356.3457    450.56483    419.88388   -146.10525     36313.31 
   53200    294.84914   -1340.7063    456.96337    451.28991   -414.84852     36313.31 
   53300    299.73858    -1363.287    455.72682     449.6113   -462.67005     36313.31 
   53400    303.51462   -1366.3232    421.60923    429.55488    136.32942     36313.31 
   53500     306.8883   -1347.6742    461.43005    503.30016    565.54865     36313.31 
   53600    313.94117   -1370.3236    464.65597    515.81103    959.00328     36313.31 
   53700    298.44699   -1374.5331    445.78403    422.57426   -172.58514     36313.31 
   53800    303.37649   -1353.4114    445.73847    465.97042    426.42788     36313.31 
   53900    295.39119   -1346.9631    452.88509    443.40908    1024.2078     36313.31 
   54000    285.25506   -1349.8572     436.0528    377.78788    473.46402     36313.31 
   54100    293.12562   -1400.3954      437.152    363.98563     612.7469     36313.31 
   54200    291.83809   -1353.1542    437.08729    405.33229   -428.08713     36313.31 
   54300    290.80608   -1347.8497    453.38615    422.26287   -178.14025     36313.31 
   54400    295.44748    -1327.256    420.67407    431.16003    53.628358     36313.31 
   54500     305.7014   -1322.1146    456.85238    518.90797    492.08144     36313.31 
   54600    291.97563   -1316.1792    443.85989    449.70265    -190.5672     36313.31 
   54700    300.61103   -1325.8734    465.18304    500.43137   -168.22052     36313.31 
   54800    304.33772   -1332.2933    463.90692    509.60929   -409.60436     36313.31 
   54900    299.63767    -1360.348    463.71552    460.08212   -182.93529     36313.31 
   55000    293.61774   -1356.7718    424.66974     397.3552    229.47487     36313.31 
   55100    299.35804   -1338.5416    457.24712    474.15397    243.11985     36313.31 
   55200    299.21549   -1362.6999    425.36861    417.47171   -55.141892     36313.31 
   55300    289.87788   -1449.6064    417.35456    280.27186      -294.86     36313.31 
   55400    300.21486   -1374.4901    460.58506    445.42299    264.62574     36313.31 
   55500    298.24777    -1337.389    428.49748    441.52981    539.80166     36313.31 
   55600    307.68763   -1313.0022    439.73431    519.89571    97.638535     36313.31 
   55700    301.28621    -1328.093    450.87087    486.95678    40.375819     36313.31 
   55800    299.80037   -1286.9537    433.94967    504.44718    548.39016     36313.31 
   55900    306.64079    -1330.256    460.27836    518.44599    543.68507     36313.31 
   56000    303.76865   -1340.4991    436.06349    470.98345    297.17931     36313.31 
   56100    298.96538   -1297.1363    436.34039    492.87461    700.27058     36313.31 
   56200    291.56465   -1337.2496    460.04999    442.96157    144.75662     36313.31 
   56300    294.99922   -1347.9001    446.57029    434.38259   -130.19502     36313.31 
   56400    299.73078    -1305.535    413.66359    465.26479   -226.88777     36313.31 
   56500    311.58765   -1293.3624    433.15219    550.61206    28.449418     36313.31 
   56600    305.28618    -1346.255    448.69458    484.72979   -214.91207     36313.31 
   56700    304.71001   -1324.5724    448.76116    503.87014   -261.97726     36313.31 
   56800    308.17225   -1346.7586    439.19451    487.79375   -316.22835     36313.31 
   56900    290.98802   -1309.3534    442.63524    450.83204    -535.3048     36313.31 
   57000    302.97534   -1321.8076    473.46252    523.48198   -149.53469     36313.31 
   57100    303.58046   -1342.1498    434.62939    467.04655    184.99972     36313.31 
   57200    295.88428   -1360.3794    450.22979    429.57017    187.05968     36313.31 
   57300    309.64365   -1375.8386    455.09542    481.27694    492.47701     36313.31 
   57400    302.72314   -1360.9412    433.50916    443.25307    -119.4268     36313.31 
   57500    310.45785   -1387.1914    441.33792     459.8532   -585.28069     36313.31 
   57600    305.37901   -1398.4278    448.08587    432.36857   -413.76665     36313.31 
   57700    299.11589   -1376.1812    432.69398    410.86478   -565.66651     36313.31 
   57800    292.77007   -1357.9931    430.25284    397.87887   -845.03406     36313.31 
   57900    301.70727   -1354.0015     450.9191    463.00298   -389.04897     36313.31 
   58000    290.57491   -1348.4677    446.08057    413.29258   -1310.5694     36313.31 
   58100    296.50573    -1311.907    447.01857    477.64514   -723.11564     36313.31 
   58200    294.05247   -1316.5423    454.90043    469.78372   -675.65231     36313.31 
   58300     301.4583   -1304.5391    447.21474    507.63376   -840.33707     36313.31 
   58400    303.39402   -1304.5619    449.49005    518.65092   -1389.8458     36313.31 
   58500    294.88282     -1375.58    452.07479    411.68014   -1039.5027     36313.31 
   58600    298.72251   -1348.0619    453.02199    457.53092   -270.13617     36313.31 
   58700    297.49648   -1345.6623     456.2609    457.61822   -603.18101     36313.31 
   58800    302.20029   -1390.5746    419.53629    397.27945    63.444398     36313.31 
   58900    301.90698   -1382.8899    439.91321    424.01291    210.38291     36313.31 
   59000    303.45796   -1398.0515    457.56948    433.53027    583.12924     36313.31 
   59100    298.06297   -1384.6313    452.53322     417.4865    735.92708     36313.31 
   59200    289.93921   -1337.5595    454.71639     429.9583    653.79807     36313.31 
   59300    311.18199    -1374.337    444.13844    478.78701    93.200019     36313.31 
   59400      301.381   -1352.2899    465.65786    477.97608    39.142474     36313.31 
   59500    288.01326   -1383.8436    456.01478    376.25211   -459.70604     36313.31 
   59600    309.28156   -1362.3249    455.83416    493.88989    114.14298     36313.31 
   59700    294.71848   -1314.4956    463.32729    483.27291   -167.64567     36313.31 
   59800    304.68663   -1366.9385    446.48602      459.123    336.66308     36313.31 
   59900    304.36839   -1380.2883    480.17762    478.02393    11.389349     36313.31 
   60000     296.3624   -1316.8475    463.96024    488.99739    -139.4449     36313.31 
   60100    303.76198   -1341.2768    458.04174    492.15377   -342.75719     36313.31 
   60200    297.52447   -1348.4746    454.62704    453.29874   -284.55311     36313.31 
   60300    295.81198   -1307.2536    446.86715    479.00594   -358.30997     36313.31 
   60400      299.864   -1366.3668    459.82873    451.20132   -384.72365     36313.31 
   60500     299.6679   -1302.8789     463.5747    517.54729   -410.18784     36313.31 
   60600    297.20966    -1326.228    458.47877     477.9717   -581.23458     36313.31 
   60700     301.3158   -1344.8042    455.09024    474.59892   -635.26066     36313.31 
   60800    293.46759   -1310.0337    426.35977    445.10343   -377.09948     36313.31 
   60900    303.02274   -1357.5042    476.21824    490.75568   -394.60056     36313.31 
   61000    299.20338   -1308.4784    468.00478    514.27453   -174.51892     36313.31 
   61100    295.57759   -1362.0846     442.7293    418.97577   -200.17406     36313.31 
   61200    306.81747   -1318.4452    467.42011    538.19853    2.7997563     36313.31 
   61300    291.67232   -1337.6748    463.08941    446.06327    161.63928     36313.31 
   61400    306.82102   -1332.1542    439.06244    496.14798    424.42406     36313.31 
   61500    300.73772   -1334.0965    456.01975    483.61871   -13.070012     36313.31 
   61600    300.43981   -1347.9595    477.74917    490.13616    70.900394     36313.31 
   61700    303.84091   -1364.5243    487.76154    498.98347   -578.27166     36313.31 
   61800     297.3368   -1323.0975    452.12309    475.32214   -371.62054     36313.31 
   61900    298.68345   -1326.8998    446.02956    471.52379   -161.79848     36313.31 
   62000    304.80135    -1334.589    463.50097    509.00686    366.23117     36313.31 
   62100    301.61778   -1349.2375    472.44784    488.89056    585.56628     36313.31 
   62200    299.52822   -1381.7653    475.03866     449.4924    746.35437     36313.31 
   62300    297.44705   -1367.0509    454.87245    434.61731    447.12842     36313.31 
   62400    302.30264   -1356.4451    445.00892    457.34497    130.19526     36313.31 
   62500    289.27104   -1347.6178     455.3855    417.54376   -193.91421     36313.31 
   62600    304.68215   -1384.9055    427.28676    421.93647    327.79786     36313.31 
   62700    302.71579   -1371.4751    447.12326        446.3    615.70028     36313.31 
   62800    306.44525   -1366.3019    484.50676    505.74318    428.99198     36313.31 
   62900    298.32246   -1341.6631    487.19592    496.29231   -30.250683     36313.31 
   63000    295.35935   -1372.2519    434.36763    399.45868   -76.480887     36313.31 
   63100    307.39429   -1367.8054    464.06447    488.09443    321.54596     36313.31 
   63200    288.29888   -1349.3998    461.24471    417.21915    152.61451     36313.31 
   63300    299.64059   -1406.6649    465.51241    415.57526   -518.06392     36313.31 
   63400    300.29393   -1364.1878    463.62345    459.12161   -207.64422     36313.31 
   63500    317.92206   -1415.1655    452.69955    477.03758    571.74308     36313.31 
   63600    297.06319   -1401.5118    448.90297    392.44885    360.18919     36313.31 
   63700    290.72975    -1373.685    452.17723    394.87304     99.21629     36313.31 
   63800    297.93081   -1402.2217    435.00007     381.7645   -158.80449     36313.31 
   63900    304.91789   -1395.1225    452.11448    437.61465     76.80813     36313.31 
   64000    298.58832   -1364.3683    453.77134     441.3663    236.86006     36313.31 
   64100    305.24856   -1361.1122    459.33349    480.34108    589.99567     36313.31 
   64200    301.36582   -1398.9784    463.41784    428.97879    194.26126     36313.31 
   64300    291.87801   -1422.5997    481.37853    380.35879    25.941965     36313.31 
   64400    294.96891   -1412.7787    462.44472    385.24116   -85.977279     36313.31 
   64500    305.32956    -1367.789    449.22538    463.92294    70.403432     36313.31 
   64600    300.37643   -1371.9519     450.7769    438.88457   -179.54747     36313.31 
   64700    296.35803   -1378.5441    478.32396    441.64468   -873.88064     36313.31 
   64800    311.19793    -1430.843    442.43882    420.65351   -535.68858     36313.31 
   64900    290.06717   -1439.2461     443.6428    317.77747   -678.76429     36313.31 
   65000    294.23186   -1419.8955    448.93713    361.27951    -630.5053     36313.31 
   65100    297.14434   -1384.4421    437.50543    398.48848   -84.823298     36313.31 
   65200    294.17455   -1377.9356    467.37908     421.4219   -605.46333     36313.31 
   65300    300.35595   -1365.0691    474.56447    469.46222   -362.14623     36313.31 
   65400    296.61172   -1370.4918    445.60397    418.12569   -82.535838     36313.31 
   65500    312.49742    -1343.478     446.7962    518.25979    590.77508     36313.31 
   65600    297.63719    -1349.545    441.82865    439.94037    459.11473     36313.31 
   65700    303.97371   -1365.1399    462.54144    473.74901    18.639772     36313.31 
   65800    304.35003   -1370.0107    450.81149    458.85225    404.39146     36313.31 
   65900    296.94439   -1344.4517    482.04909    482.11717    620.92558     36313.31 
   66000    294.47784   -1332.7629    477.46664     478.0554     193.9692     36313.31 
   66100    307.60282   -1309.6871    459.23067    542.32317    477.39877     36313.31 
   66200    299.68439   -1322.1388    476.82251    511.60984   -76.438116     36313.31 
   66300    303.10515   -1339.7146     489.6392    522.33937   -160.49094     36313.31 
   66400    289.54209   -1366.5884    461.72903     406.1439   -341.35163     36313.31 
   66500    301.36807   -1368.2239    465.10756    461.43321   -48.677207     36313.31 
   66600    293.92602   -1382.0634    469.36913    418.15883   -82.982024     36313.31 
   66700     302.6364   -1344.0509       455.32    481.56143    228.14053     36313.31 
   66800    302.61461   -1379.0812    460.06944    451.18197   -144.12557     36313.31 
   66900    303.55641   -1359.5211    486.56176    501.49869   -265.04787     36313.31 
   67000    300.80604   -1373.0425     496.7185     485.6808   -931.21128     36313.31 
   67100    295.05966   -1311.7624    463.13797    487.36157   -321.05318     36313.31 
   67200     298.1957   -1339.1192    477.98702    489.05339   -86.259197     36313.31 
   67300    301.99403   -1328.9069    458.11057     496.5875   -226.24421     36313.31 
   67400    296.25489   -1341.9416    465.39835    464.85463   -685.20789     36313.31 
   67500    288.20285   -1351.4387    467.40859    420.90932   -330.42236     36313.31 
   67600    294.31991   -1347.2261     456.8817    442.29219    -385.2141     36313.31 
   67700    301.02617   -1278.7453    465.71586    549.97208   -780.79095     36313.31 
   67800    295.31601   -1296.1141    496.93402    537.96669   -444.96033     36313.31 
   67900    290.75469   -1363.2228    475.35371     428.6246   -395.30531     36313.31 
   68000    304.50477   -1363.1852     467.4433    483.01018   -379.98939     36313.31 
   68100    298.17409   -1295.0673    479.14435    534.16473   -607.73667     36313.31 
   68200    295.15744   -1342.8678    460.07302    453.63397   -158.86062     36313.31 
   68300     308.6604   -1296.2169    472.92842    574.27964    603.11545     36313.31 
   68400    306.97718   -1308.0133    498.21671    580.15022   -340.08563     36313.31 
   68500    296.38486   -1296.5025    492.76486    538.24866    32.284277     36313.31 
   68600    307.59084   -1321.9877    453.02637    523.76401   -315.22237     36313.31 
   68700    303.77146   -1341.8018     485.4992    519.12912    518.31327     36313.31 
   68800    295.95725    -1338.429    450.89799    452.51911   -12.199443     36313.31 
   68900    298.16504   -1361.7281    453.08126    441.39983    111.62694     36313.31 
   69000    301.29223   -1296.4532    491.59423    559.34715   -74.510044     36313.31 
   69100    300.84265   -1302.1866    474.38939    534.37328   -516.71613     36313.31 
   69200    313.33721   -1328.3187    462.26918    552.69449   -587.87236     36313.31 
   69300    306.03193   -1321.4854    456.38288    520.56434    20.376019     36313.31 
   69400    310.46255   -1292.4144    462.93295    576.24657   -13.245369     36313.31 
   69500    301.45616   -1306.5021    473.62064    532.06692     -645.078     36313.31 
   69600     298.8219   -1309.0088    474.27172    518.28379     164.8899     36313.31 
   69700    298.47236   -1316.5138     485.1858    520.11026   -20.478605     36313.31 
   69800    297.63471   -1294.9463    497.07816    549.77733    180.04918     36313.31 
   69900    301.26349   -1293.1084    441.89432    512.86199    166.71127     36313.31 
   70000     296.4875    -1321.419    507.23467    528.26678   -59.083422     36313.31 
   70100    302.29845   -1340.4962    465.55354    493.81952    606.93418     36313.31 
   70200    297.66493   -1320.7102    456.42586    483.49799   -85.224598     36313.31 
   70300    305.96781   -1358.2477    491.87839    519.00716   -165.13605     36313.31 
   70400    294.24022   -1370.6259    465.04283     426.6927   -235.62927     36313.31 
   70500     308.4455   -1351.1538    458.37848    503.81975   -750.05559     36313.31 
   70600    290.72699   -1312.0099    459.96555      464.324   -702.64023     36313.31 
   70700    309.13158   -1295.0777    469.38616    574.01001   -1192.5666     36313.31 
   70800    305.74137    -1339.575    468.71116    513.48737    -500.5553     36313.31 
   70900    302.35043   -1397.2971     469.9843    441.68475   -731.30963     36313.31 
   71000     302.3035   -1436.2208    472.20979    404.77399   -184.90251     36313.31 
   71100    303.81998   -1367.8721    479.63834    487.41767    102.26925     36313.31 
   71200    296.32392    -1420.394    479.49974    400.81612    -360.8869     36313.31 
   71300    311.50257   -1384.6239     459.5444    485.35757   -592.60788     36313.31 
   71400    306.79867   -1427.3266    465.69094    427.50283    294.46226     36313.31 
   71500    304.99424   -1384.4579    465.12466    461.63512    10.852688     36313.31 
   71600    298.57619   -1381.0623    447.12007    417.96613    348.34697     36313.31 
   71700    301.80848   -1317.6719    478.20625    527.07803    276.62012     36313.31 
   71800    298.13838   -1336.5543    483.29364    496.66537     50.03662     36313.31 
   71900    308.92432   -1344.3484    483.24934    537.66407    203.55651     36313.31 
   72000     298.2066   -1332.0308    468.65653    486.86064    617.44318     36313.31 
   72100    301.92084   -1328.9797    468.51502    506.58773    43.274154     36313.31 
   72200    303.31797   -1332.5665    459.50574    500.31764    130.93285     36313.31 
   72300    309.13637   -1326.1153     479.8259    553.43383   -215.13888     36313.31 
   72400    298.18708   -1337.4509    489.74014    502.43571    -401.5549     36313.31 
   72500    294.25535    -1345.538    466.16872    452.97498    -502.3053     36313.31 
   72600    312.51352   -1390.5451     458.4297    482.89908    260.28229     36313.31 
   72700    302.82064    -1373.504    469.86244    467.48504    112.46713     36313.31 
   72800    293.02533   -1393.9653    475.37362    408.18323    441.56543     36313.31 
   72900    309.12752   -1402.2832    461.35484    458.75479    488.75685     36313.31 
   73000    301.02149   -1382.9294    463.76057    443.81145     329.3947     36313.31 
   73100    288.88531   -1363.7357    434.68302    378.97685   -141.11348     36313.31 
   73200    301.03005   -1390.5486    473.20159    445.67208    390.59721     36313.31 
   73300    298.14917   -1343.4666    467.15398    473.66221    140.76191     36313.31 
   73400    299.43885   -1375.5933    440.68605    420.90714   -46.662126     36313.31 
   73500    298.29773   -1393.2477     475.4936    432.89344   -257.54289     36313.31 
   73600    307.65995   -1370.3419      456.278    478.97434   -39.684119     36313.31 
   73700    293.90515   -1313.6697    448.96892    466.05781    295.95359     36313.31 
   73800    294.74139   -1379.0678    475.42192    430.89909    92.381668     36313.31 
   73900    295.39028   -1373.4174    466.85085    430.91646   -311.26828     36313.31 
   74000    300.83109   -1385.0776    474.07897    451.11957   -114.07277     36313.31 
   74100    298.71664   -1346.2524    461.35072    467.64263    50.872592     36313.31 
   74200     302.9331   -1392.4058      473.985    453.21497   -325.21791     36313.31 
   74300    299.94168   -1404.6545    473.83422    427.27075   -90.786382     36313.31 
   74400    301.03532   -1408.1016      460.683    415.62431   -55.281777     36313.31 
   74500    308.38505   -1406.3646    492.73964    482.69645   -386.56856     36313.31 
   74600    288.03906   -1392.2036     457.4739    369.46806   -467.10315     36313.31 
   74700    300.22809   -1386.9091    451.27251     423.7513   -82.495613     36313.31 
   74800    296.81825   -1403.6748    460.58249    400.85635   -307.50577     36313.31 
   74900    301.90288    -1398.894    455.44704    423.52412    384.86956     36313.31 
   75000    285.00848   -1385.9828     465.0094    369.50238    65.184766     36313.31 
   75100       304.77   -1409.6688    487.08171    457.36585    927.79587     36313.31 
   75200    301.90128   -1390.4226    469.08477    445.62601   -288.90679     36313.31 
   75300    301.40977   -1366.6038    470.95189    469.08649    -370.8982     36313.31 
   75400    301.56707   -1340.3047    463.49641    488.64231   -124.46464     36313.31 
   75500    296.98984   -1382.0084    459.14611    421.86333   -693.53879     36313.31 
   75600    308.68152   -1322.0294     482.3134    557.94774    -701.9113     36313.31 
   75700    299.29235   -1364.3678    477.78183    468.56501   -491.82248     36313.31 
   75800    297.71804   -1375.6405    465.98918    438.37147   -9.2834621     36313.31 
   75900    298.61812   -1404.0472    476.62673    424.67772    -694.4784     36313.31 
   76000    305.30582   -1378.8992    472.24425    475.72417   -345.20669     36313.31 
   76100    299.43219   -1375.6558    438.29806     418.4264    94.537215     36313.31 
   76200    293.80635   -1421.5893    461.09887    369.82082   -532.01636     36313.31 
   76300    302.76787   -1391.3627      473.326    452.85095   -155.00938     36313.31 
   76400    309.26426   -1353.6216    499.38105    546.06179   -259.91984     36313.31 
   76500    294.90865   -1354.3676    463.50959    444.44426    427.66097     36313.31 
   76600     306.5306   -1393.2477    448.37802    443.05503    17.589487     36313.31 
   76700    299.89603   -1330.2773    491.44113    519.04816    39.628836     36313.31 
   76800    306.14213   -1313.6844    462.56134    535.04272      563.031     36313.31 
   76900    305.52396   -1326.8287    467.64124    524.17933   -237.73963     36313.31 
   77000    303.24646   -1331.3359    476.71494     518.4337   -152.60195     36313.31 
   77100    289.53965   -1368.2138    474.14612    416.92455   -20.486345     36313.31 
   77200    296.41209   -1331.8015     471.8323    482.14036   -591.69261     36313.31 
   77300    300.72821   -1302.8693    490.22379    549.00688   -771.06382     36313.31 
   77400    303.09153   -1311.5876    479.55206    540.31754   -82.863623     36313.31 
   77500    303.13607   -1341.1821    461.81604    493.18875    185.79262     36313.31 
   77600     291.7348   -1343.3263    497.41586    475.02107   -205.18173     36313.31 
   77700     315.9477    -1307.981     505.9996    628.58256   -177.48685     36313.31 
   77800    301.30454   -1317.8792    460.32151    506.70421    142.14726     36313.31 
   77900    304.60611   -1316.8128    513.41294    575.81102    306.96777     36313.31 
   78000    310.17881   -1324.0554    471.79497     552.1828    96.480697     36313.31 
   78100    306.65698   -1279.5515    489.25194    598.19745    503.61771     36313.31 
   78200    296.57638   -1297.7076    494.99091    540.13688    231.62997     36313.31 
   78300    297.47649   -1330.5816    477.33784    493.68527    16.329229     36313.31 
   78400    298.63983   -1359.5359    472.51504    465.17567   -217.92968     36313.31 
   78500    296.41385   -1379.1156    456.50972    419.51175    220.17034     36313.31 
   78600    301.55207   -1408.7356    483.04752    439.69461     415.2397     36313.31 
   78700    294.50194   -1393.6371     465.4268    405.25044     244.9128     36313.31 
   78800    295.26952   -1374.4382    467.75875    430.25678    -28.43971     36313.31 
   78900    292.49836   -1397.1558    476.60251     403.8355    10.261597     36313.31 
   79000    301.09251   -1402.8319    478.47271    438.94268    41.864526     36313.31 
   79100    298.47972   -1380.1131    476.70584    448.06425   -41.595001     36313.31 
   79200    306.58433   -1355.6561    490.51629    523.02819    310.78309     36313.31 
   79300    314.58511   -1397.3893    443.03741     470.0425    494.95149     36313.31 
   79400    306.22713   -1368.9984    480.09011     497.6424    138.70483     36313.31 
   79500    304.53416   -1391.3619    474.18582    461.70904    446.80442     36313.31 
   79600    295.31753   -1368.5364    472.51295    441.13015    709.32526     36313.31 
   79700    302.42909   -1338.2512    449.14659    480.24909    76.680101     36313.31 
   79800    308.75931   -1356.7045    485.76036    527.07183    840.57034     36313.31 
   79900    290.86568    -1335.761    482.23562    463.47098    219.16658     36313.31 
   80000    286.18513   -1352.7521    474.47261    417.52398    308.08987     36313.31 
   80100    294.05945   -1327.9502    469.60126    473.10826    542.17983     36313.31 
   80200    311.50263   -1311.5264    490.16451    589.07538    709.74421     36313.31 
   80300    290.83422    -1328.924    487.35253    475.28239   -395.86938     36313.31 
   80400    297.40015   -1333.5813    462.32719    475.32931    109.17089     36313.31 
   80500      306.279   -1341.0652    462.85994    508.58031   -412.78382     36313.31 
   80600    302.03539   -1320.0828    464.94242    512.43069    13.218967     36313.31 
   80700    298.49093   -1376.4058    454.49908    429.61555    154.54095     36313.31 
   80800    287.46947   -1359.7845    479.93044    421.76466   -467.30814     36313.31 
   80900    295.26521   -1310.4394    491.70414    518.18148     -1106.86     36313.31 
   81000    293.56804   -1350.7646    471.49188    449.95943   -948.10043     36313.31 
   81100    298.34283   -1330.6813    482.12561    502.29607   -68.217701     36313.31 
   81200    294.98875   -1345.5308    494.84141    484.97554   -281.48244     36313.31 
   81300    291.58006   -1343.7431    478.77628    455.26408    647.95587     36313.31 
   81400    304.54592   -1342.2873    469.01477    505.66591    259.40439     36313.31 
   81500    303.72545   -1336.1948    470.02561    509.05422    637.24423     36313.31 
   81600    291.17668   -1352.4813    455.68516    421.60832   -187.27936     36313.31 
   81700    302.19251   -1358.2485    478.72491    488.75888    527.76616     36313.31 
   81800    296.73457   -1398.5285    463.31116     408.3524     430.9248     36313.31 
   81900    301.32335   -1377.3893    461.43867    448.39646    249.26404     36313.31 
   82000    318.18629   -1410.8756    463.88953    493.71386   -71.735669     36313.31 
   82100    296.81858   -1377.3104    456.79271    423.43242    725.15455     36313.31 
   82200    301.29666   -1386.7586    445.63815    423.10576   -144.47513     36313.31 
   82300    298.77803    -1392.249    463.69958    424.27277   -276.36905     36313.31 
   82400    299.95807   -1381.3023    464.14713    441.01007   -325.22002     36313.31 
   82500    289.36075   -1403.8379    478.40129    384.74565   -449.00845     36313.31 
   82600    300.48087   -1429.2201    478.82694    410.13924    53.335569     36313.31 
   82700    294.22204   -1361.6271     474.6804    445.24673   -80.069988     36313.31 
   82800    300.45159   -1390.3967    457.89023    427.89343   -28.517523     36313.31 
   82900    306.40006   -1404.3139    483.38974    466.40952   -318.21766     36313.31 
   83000    304.22172   -1378.9175    452.41902    450.97196     330.1634     36313.31 
   83100    289.83462   -1381.9669     467.8903    398.25125   -41.474746     36313.31 
   83200    296.15397   -1375.1701    477.36648    443.13728   -19.467701     36313.31 
   83300    300.79838   -1336.3936    480.98417    506.56066    631.52552     36313.31 
   83400    298.07292   -1347.3871    490.20902    492.45149    548.07221     36313.31 
   83500     305.4361   -1354.3326     461.3259    489.96229    87.985031     36313.31 
   83600    301.69954    -1408.968    482.96393    440.04628   -456.71497     36313.31 
   83700    294.20353   -1360.0498    469.70368    441.76349    183.36393     36313.31 
   83800    303.24811   -1406.5729    467.78283    434.27202   -42.987504     36313.31 
   83900    299.82877   -1387.8168    477.13026    446.89326   -512.90105     36313.31 
   84000    303.14095   -1400.5178    467.05889    439.11795   -261.15952     36313.31 
   84100    306.54513    -1359.718    472.40621    500.67869   -443.65794     36313.31 
   84200    291.89154   -1378.8763    486.50118    429.26615    -502.8944     36313.31 
   84300    287.84552   -1378.1971    469.69753    394.82189   -183.11301     36313.31 
   84400    301.11941    -1387.046    452.03443    428.41212   -106.13729     36313.31 
   84500    301.13427   -1408.9787    455.57802    410.09026    -710.8772     36313.31 
   84600     298.7025   -1404.6809    477.93686    425.73624   -681.50883     36313.31 
   84700    305.39785   -1396.5992    486.42296    472.61957   -268.74261     36313.31 
   84800    307.45095   -1330.1421    479.53438    541.48421   -122.03209     36313.31 
   84900    297.12701   -1360.0688    498.24622    483.52411   -270.27646     36313.31 
   85000    313.56461   -1417.2402    500.09492    502.62835    125.47787     36313.31 
   85100    292.06451   -1400.7724    449.49915     371.1512    559.67782     36313.31 
   85200    302.17684   -1391.8704    503.35622     479.6974    416.72452     36313.31 
   85300    296.02716   -1382.2095    469.29533    427.45257    25.358287     36313.31 
   85400    286.98538   -1414.9418    462.60591      347.091    98.199976     36313.31 
   85500    294.15122   -1409.8076    470.76204    392.82717    289.29352     36313.31 
   85600    316.12049   -1334.7629    525.56578    622.14918    242.21911     36313.31 
   85700    317.22204   -1353.2441     503.6204    586.71026    428.03697     36313.31 
   85800    312.60872    -1358.877    456.22929     512.7978    442.99853     36313.31 
   85900    296.00858   -1366.4311    483.95408    457.80556   -559.60327     36313.31 
   86000    307.76564   -1348.7794    483.67458    528.41192   -722.80984     36313.31 
   86100      303.468   -1334.0374    465.43431    505.45464   -769.51839     36313.31 
   86200    298.32305   -1377.1691    477.65902    451.25208   -425.78337     36313.31 
   86300     300.3331   -1361.4893    482.91613    481.29024    -781.7908     36313.31 
   86400    305.72141    -1320.025    514.13701    578.37284   -307.27694     36313.31 
   86500    301.22227   -1347.4036    456.93685    473.42262    129.69841     36313.31 
   86600    298.30813   -1346.3888    494.80859    499.11434   -109.79411     36313.31 
   86700    298.01617   -1365.8994    475.41691    458.89016    241.61646     36313.31 
   86800     300.0967   -1383.4589    463.00117    438.33523    -196.7435     36313.31 
   86900    309.71989   -1347.5895    493.60878    548.38465    213.05778     36313.31 
   87000    306.80998   -1326.7585    483.95772    546.38894   -186.70286     36313.31 
   87100    293.93402   -1372.6249    479.41116    437.67556   -75.142341     36313.31 
   87200    306.19268   -1363.9701     522.3553    544.77989   -110.75984     36313.31 
   87300    289.47955   -1386.4971    482.99695    407.21996   -187.76149     36313.31 
   87400    285.62498   -1402.1327     484.1889    375.32342    -35.77427     36313.31 
   87500     293.4685   -1368.9517    472.00932    431.83912    894.35306     36313.31 
   87600    292.06789   -1361.5931    531.57414    492.42083    218.44387     36313.31 
   87700    302.24325   -1393.2814     496.6019     471.8327    809.32604     36313.31 
   87800    302.09465    -1359.425    488.95629    497.37069    646.63199     36313.31 
   87900    295.77575   -1353.7448    494.58507    480.06869   -157.20262     36313.31 
   88000      292.225   -1410.9361     495.2602    407.47514   -216.91315     36313.31 
   88100    294.67323   -1388.4836    495.74776    441.50051    846.22341     36313.31 
   88200    300.29628   -1383.8315    477.52249     453.3876   -430.98465     36313.31 
   88300    316.24356   -1444.1977    497.46272    485.16857   -1102.0636     36313.31 
   88400    295.16022   -1374.2956    517.96557    480.11136   -893.57704     36313.31 
   88500    298.79135   -1383.6264    488.89917     458.1553   -18.319895     36313.31 
   88600    303.65994   -1366.0796    481.21135    490.05861    445.65651     36313.31 
   88700    293.41423   -1374.2254     528.3836    482.69401    292.65542     36313.31 
   88800    299.90027   -1422.6563    481.60397    416.85128    144.12493     36313.31 
   88900    301.01587   -1430.7571    468.05315    400.25092    175.20592     36313.31 
   89000     295.1688   -1420.2502    481.00001    397.23003    -116.7529     36313.31 
   89100    298.55445   -1370.0607    470.59632    452.34556    377.81683     36313.31 
   89200    307.03672    -1350.009    485.58684    525.79413    741.17823     36313.31 
   89300    303.34901   -1365.4699    485.40221    493.45129     327.8298     36313.31 
   89400    306.72868   -1380.2587     482.3248    490.88765   -244.71425     36313.31 
   89500    299.42252   -1357.1197     510.3538     508.9745    176.44534     36313.31 
   89600    304.47869   -1387.4812    450.08757    441.24031    268.62411     36313.31 
   89700     295.4565   -1383.8749    494.23599    448.14398    645.48131     36313.31 
   89800    291.52764   -1404.9532    499.92915     414.9695     1042.746     36313.31 
   89900    304.12545   -1378.5925    482.62727    481.06938    1129.7506     36313.31 
   90000    310.18755   -1407.0285    516.71902    514.17336    647.26147     36313.31 
   90100    303.44087   -1337.2205    489.39486    526.10921    89.722523     36313.31 
   90200    302.15112   -1366.2325     497.9874    499.84999    412.91426     36313.31 
   90300    306.80428   -1413.7547    482.39312    457.80232    830.86931     36313.31 
   90400    301.26586   -1373.4694    472.25008    462.86746    486.48294     36313.31 
   90500    303.51028   -1434.2117    480.82821    420.86562    602.78816     36313.31 
   90600    291.05248   -1424.5982    466.13924    359.38309    630.34772     36313.31 
   90700    298.08429   -1412.6963    501.18538     438.1702     135.7247     36313.31 
   90800    299.50563   -1433.0114    464.24788    387.35322    455.42486     36313.31 
   90900    296.46047   -1381.9935    485.60806    445.94328    119.07202     36313.31 
[...]
  984600    306.50218   -1418.0271    521.32163    491.09062   -654.06118     36313.31 
  984700     291.2822   -1427.2167    538.77852     430.4441    88.896018     36313.31 
  984800     293.9887   -1404.2527    535.51853    462.40268   -170.07344     36313.31 
  984900    307.81127   -1405.4331    512.37577    500.66612   -404.58147     36313.31 
  985000    305.55131   -1465.7935     512.5851    430.28221   -1031.8561     36313.31 
  985100    300.29681   -1488.4118    542.57983    413.86712   -532.40756     36313.31 
  985200     296.4056   -1486.4239    507.69856    363.35494   -806.30495     36313.31 
  985300    293.43636   -1471.9221    523.85272    380.56654    281.83358     36313.31 
  985400    313.15291   -1496.5476    499.04451     420.4064    189.36209     36313.31 
  985500    295.91983   -1453.7249    523.19794    409.35377     36.50837     36313.31 
  985600    289.42256    -1495.935    521.97096    336.49805    4.2792727     36313.31 
  985700    304.94161   -1496.0788    519.39505    404.04623   -581.30267     36313.31 
  985800    298.94114   -1468.6628    504.10871    389.00671   -414.82284     36313.31 
  985900    305.30586   -1459.5854    493.41226    416.20614    -58.79938     36313.31 
  986000    303.66578   -1491.9279    480.12876    363.15413    383.69961     36313.31 
  986100    311.12874    -1485.243    533.84165    457.34304    505.19504     36313.31 
  986200    308.25269   -1531.7553    497.69212    361.65888    570.91413     36313.31 
  986300    290.39741   -1474.9426    507.53846    347.47187    1004.2361     36313.31 
  986400     310.4668   -1476.7634    516.27205    445.25587    636.18286     36313.31 
  986500    306.40125   -1479.5399    512.59086       420.39    911.06452     36313.31 
  986600    292.50752   -1478.7431    530.83305    376.52027    350.81711     36313.31 
  986700    302.92472   -1449.1638    535.12717    457.56126    684.42315     36313.31 
  986800    308.23153   -1450.6674    520.58028    465.53914    189.46545     36313.31 
  986900    291.97128   -1448.4061    528.85594    402.45216   -251.63446     36313.31 
  987000    297.19285   -1499.1009     515.5775    362.12142    349.15171     36313.31 
  987100    291.56343   -1439.8586    484.10517    364.40219    696.97388     36313.31 
  987200    295.34299   -1469.6121    524.03684    391.69365   -468.73765     36313.31 
  987300    290.23581   -1491.9109    529.31014    351.54359   -168.79129     36313.31 
  987400    305.37737   -1452.0246    528.71182    459.39035   -298.14243     36313.31 
  987500    303.49242   -1475.9161    518.88707    417.13932   -107.70423     36313.31 
  987600    295.07909   -1476.3933    484.70122    344.38194   -452.89757     36313.31 
  987700     304.2742   -1493.9307    516.78955    400.56694   -288.76353     36313.31 
  987800    309.20133   -1471.1024    535.22703    464.14197    500.08594     36313.31 
  987900    297.74659   -1492.5377    517.40608    373.02039   -290.89463     36313.31 
  988000    298.33301   -1454.0776    529.86419    426.59383   -91.823167     36313.31 
  988100    303.67737   -1450.8883    504.84285     428.9603    357.02272     36313.31 
  988200    305.27024   -1455.8678    521.26944    447.61963   -60.508879     36313.31 
  988300    305.88329   -1450.4231    515.75979    450.33047   -338.18895     36313.31 
  988400    298.46181   -1465.1883    530.21058    416.41267   -195.25247     36313.31 
  988500    290.49919   -1450.8575    527.53667    392.01608    169.70696     36313.31 
  988600    296.31256   -1464.3745    514.71936    392.00385   -144.86813     36313.31 
  988700     296.6317   -1443.5536    510.27976    409.83012   -547.73807     36313.31 
  988800     308.5909   -1479.6579    514.68607    432.28156    51.964304     36313.31 
  988900    293.93818   -1482.7853    497.68221    345.80502    208.78062     36313.31 
  989000    297.91852   -1453.3341    569.88006    465.47645    476.32304     36313.31 
  989100    298.72266   -1448.7212    524.48915    428.33951   -2.3602324     36313.31 
  989200    300.55877   -1442.8235    489.59364    407.65536    47.287428     36313.31 
  989300    298.31145   -1506.3855    527.59318    371.91736   -94.233141     36313.31 
  989400    291.99856   -1502.8797    515.84577    335.09184   -604.96054     36313.31 
  989500    289.16362   -1482.7111    497.48616     324.0647   -873.49221     36313.31 
  989600    298.13607   -1461.1017    502.33282    391.14666   -894.06227     36313.31 
  989700    300.14788   -1465.1794    517.28139    411.12671    7.0864001     36313.31 
  989800    291.64625   -1480.5885    509.26378    349.20582   -305.77539     36313.31 
  989900     308.1067   -1471.5326    505.11053    428.63896   -757.81474     36313.31 
  990000    301.64047   -1466.8716    528.34229    427.25369    74.291658     36313.31 
  990100    296.14461   -1456.9697    499.01234    382.94114   -17.228662     36313.31 
  990200    307.75153   -1435.0447    505.13019    463.53838   -124.69019     36313.31 
  990300    291.43075   -1472.2793    506.64369    353.91924    373.99467     36313.31 
  990400     299.7836   -1437.7115     499.7025    419.36631    584.68507     36313.31 
  990500    301.35384   -1436.7664    523.31298    451.03168    135.23271     36313.31 
  990600    299.64169   -1450.2156    517.90428    424.42141   -71.942857     36313.31 
  990700    291.28122   -1462.5501    521.08295    377.41066   -213.31109     36313.31 
  990800    302.61757   -1465.0719    511.43109    416.56629   -638.33369     36313.31 
  990900    292.81326   -1475.5746    523.75893    373.99903   -442.78218     36313.31 
  991000    302.71935   -1473.1997     539.6904    437.15864   -255.95849     36313.31 
  991100    306.18198    -1442.369    505.89431    449.87152    566.24924     36313.31 
  991200    306.94847   -1491.6541    546.68614    444.84881   -167.37125     36313.31 
  991300    296.05307   -1458.5996    530.64254    412.52697    184.76718     36313.31 
  991400    289.15815   -1448.6617    493.08292    353.68609   -546.79516     36313.31 
  991500    304.50508   -1388.9164    518.00659    507.84363   -72.847274     36313.31 
  991600    298.45238   -1459.0575    533.91757    426.20787   -302.72453     36313.31 
  991700    308.20323   -1443.8201     517.3182    468.99621    -608.9345     36313.31 
  991800    301.12402   -1432.3365    525.41526     456.5233   -307.81103     36313.31 
  991900    294.87903   -1416.4749    528.26261    446.95587    165.70617     36313.31 
  992000    289.86049   -1425.3078    505.90593    393.04302    84.029508     36313.31 
  992100    296.84675   -1433.3957    557.30796    467.98998     832.4695     36313.31 
  992200    300.20362   -1435.1362     550.3331    474.47404    680.00649     36313.31 
  992300    305.64734   -1441.8108    540.40298     482.5176   -210.43184     36313.31 
  992400    303.87807   -1456.7906      506.315    425.43884     451.8209     36313.31 
  992500    294.55411   -1451.9595    490.31699    372.05445   -155.14783     36313.31 
  992600    296.67055   -1479.0434    505.75909    369.99563   -487.63869     36313.31 
  992700    292.03085   -1427.9723    517.34177    411.64148   -653.09022     36313.31 
  992800    297.14219   -1478.0258    535.98403     403.3736   -659.77403     36313.31 
  992900    298.85463   -1450.3603    533.93197    436.74072   -350.11957     36313.31 
  993000    308.34817   -1478.5798    494.31942    411.89398   -164.61392     36313.31 
  993100    301.45906   -1452.1876    542.97337    455.74732    -169.7414     36313.31 
  993200    301.23552   -1491.7469    509.76173    381.96423   -51.159178     36313.31 
  993300    303.11295   -1500.1857    518.45328    390.71774   -337.99354     36313.31 
  993400     298.8297   -1480.1161     532.4663    405.40639   -123.83662     36313.31 
  993500    309.21715   -1466.9003    536.30477    469.49347   -59.180877     36313.31 
  993600    295.82739   -1439.9401     510.5227    410.04475    414.18341     36313.31 
  993700    308.97941   -1479.4553    503.54995    423.10728    92.051349     36313.31 
  993800    298.77826   -1488.2936    530.87769    395.40737   -556.78302     36313.31 
  993900      304.017    -1444.854    512.50642    444.19597   -5.9567775     36313.31 
  994000    305.06646   -1465.1931    509.38131    425.48351     -523.923     36313.31 
  994100    287.10476   -1462.6095    502.71654    340.07451   -85.556281     36313.31 
  994200    310.42415   -1443.2899    521.21062    483.47481    247.16243     36313.31 
  994300    301.52019   -1475.8472    523.94296    413.33408   -29.390005     36313.31 
  994400    302.62508   -1448.9475    534.21574    455.50939    327.20988     36313.31 
  994500    308.59654   -1413.3767    536.95366    520.85597    22.213331     36313.31 
  994600    297.09193   -1410.6395    497.99135    432.53969    346.36391     36313.31 
  994700    307.13354   -1455.5545    528.63454    463.73483    337.28849     36313.31 
  994800    300.61239   -1408.4452    506.67883    459.36156    348.82057     36313.31 
  994900    307.20441   -1468.8402    518.72383    440.85924   -361.73682     36313.31 
  995000    298.42897   -1485.9894    512.56305    377.81544    23.499282     36313.31 
  995100    299.44309   -1453.8933    516.71054    418.65081    495.95918     36313.31 
  995200    300.28384    -1456.243    526.24494    429.64229    384.05569     36313.31 
  995300    297.41107   -1445.0525    498.42096    400.00131   -165.15184     36313.31 
  995400    303.67252   -1454.6696    539.44332     459.7575    -391.3224     36313.31 
  995500    279.70593   -1455.6369    506.29973    317.12944   -199.00691     36313.31 
  995600    307.93385   -1485.6697    515.65605    424.26482    -281.8252     36313.31 
  995700    297.73026   -1469.0531    511.49376    390.51874   -2.5561549     36313.31 
  995800    300.92993   -1433.7691    500.22754    429.02413   -358.65759     36313.31 
  995900    302.23788   -1421.5754    511.16683    458.07937    -260.4912     36313.31 
  996000    298.44716    -1423.751    520.00287    447.57595   -31.666722     36313.31 
  996100    302.70591   -1420.7224    567.94294    517.82763   -322.88612     36313.31 
  996200    296.59608   -1462.3466    511.17164    391.76775    476.42076     36313.31 
  996300    300.10084   -1437.1167    563.10429    484.79932    14.838789     36313.31 
  996400    297.35448   -1422.4316    510.49041    434.43542    274.10472     36313.31 
  996500    294.63411   -1478.6583    516.44773    371.84859     553.1348     36313.31 
  996600    312.52789   -1427.3811     517.7673    505.46576    710.90503     36313.31 
  996700    304.20369   -1441.9056    520.37117    455.85436    484.66993     36313.31 
  996800    288.02424   -1423.1776    521.06168    402.01475    137.28742     36313.31 
  996900    306.81035   -1401.6107    509.78643    497.36712   -414.94552     36313.31 
  997000    303.68436   -1415.4667    521.89917    481.46983   -265.70433     36313.31 
  997100    302.52665   -1489.9127    501.07468    380.95742    438.44208     36313.31 
  997200    297.94298   -1481.1728    520.92102    388.78952     329.2815     36313.31 
  997300    296.29591   -1434.0466     515.5116    423.04862      291.812     36313.31 
  997400    298.01504   -1442.6311    508.64717    415.38365   -414.07368     36313.31 
  997500    303.38149   -1467.2729    506.11481    412.50794   -160.20653     36313.31 
  997600    293.13827   -1482.6379    516.54945    361.19776   -352.04507     36313.31 
  997700    295.60502   -1505.0293    510.42303    343.84902      14.2838     36313.31 
  997800    293.40251   -1459.6145    522.15351    391.02171   -90.757417     36313.31 
  997900     305.0037   -1444.2025    529.92895    466.73755    67.538547     36313.31 
  998000    288.61181   -1455.0104    494.90644    346.68717   -325.97569     36313.31 
  998100    304.31634    -1463.895    512.72207    426.72598   -59.582419     36313.31 
  998200     295.7772    -1421.836    507.01356    424.41246    -492.5717     36313.31 
  998300    301.94009   -1412.6911    518.61445     473.0629   -430.07853     36313.31 
  998400    307.10452    -1476.786    503.86473    417.60206    219.62722     36313.31 
  998500    303.34728   -1451.0081    510.96906    433.47208    321.01411     36313.31 
  998600    294.01435   -1462.8206    514.93555    383.36802    124.84874     36313.31 
  998700     290.9685    -1452.269    513.70574    378.89858    58.794638     36313.31 
  998800    302.18617   -1417.7818    561.79525    512.26723   -430.62865     36313.31 
  998900    308.80464   -1454.3209     507.4738    451.37412    159.59346     36313.31 
  999000    292.48018   -1419.0076    510.24161    415.54049    320.84697     36313.31 
  999100    300.55369   -1430.8881    525.32676    455.30086    614.31763     36313.31 
  999200    305.04691   -1452.2675    544.53714     473.4764   -614.24677     36313.31 
  999300     294.9105    -1466.348    540.06647    409.02909   -327.36727     36313.31 
  999400    292.61236   -1489.8442    520.71609     355.7769    403.35663     36313.31 
  999500    305.63882   -1505.0807    503.02351    381.82962    39.608274     36313.31 
  999600    295.06547   -1490.4966    503.07294    348.58862   -184.58122     36313.31 
  999700     289.7362   -1451.6925    540.78914    400.97885   -571.22585     36313.31 
  999800    304.64914    -1459.205    517.12214     437.3229   -546.95312     36313.31 
  999900    288.71955   -1430.6133    529.02149    405.68714   -454.12416     36313.31 
 1000000    301.11346   -1435.7934    515.90688    443.51022   -494.33144     36313.31 
 1000100    293.92137   -1470.5939    525.27893     385.5171    -480.7088     36313.31 
 1000200     303.8819    -1443.907    512.21447    444.23926    126.74276     36313.31 
 1000300    304.25389   -1452.0473     526.3932    451.96198   -112.17801     36313.31 
 1000400    295.72345   -1463.0351    545.05056    421.00706    16.038774     36313.31 
 1000500    314.09323   -1431.0432    528.67698    519.80095    510.93671     36313.31 
 1000600     298.4646   -1487.6496    497.57313    361.32664   -139.67912     36313.31 
 1000700    301.45609   -1459.4552    509.86466    415.35756    215.20256     36313.31 
 1000800    294.65002    -1502.261    514.36129    346.23153    48.195636     36313.31 
 1000900    304.73179   -1475.0474    523.03473    427.76728     656.8196     36313.31 
 1001000    295.67329   -1439.6864    531.08764    430.16565   -211.81894     36313.31 
 1001100    303.61833   -1447.0122    512.98756    440.71378    413.05572     36313.31 
 1001200    308.58199   -1471.1615    488.90531    414.95692    43.771758     36313.31 
 1001300    303.72267   -1447.5995    520.61166    448.22303    145.57231     36313.31 
 1001400    290.88516   -1473.3444    505.76728     349.5074   -160.77447     36313.31 
 1001500    295.09346   -1481.1514    519.09284    374.08051   -316.38702     36313.31 
 1001600    299.75759   -1457.1398    519.90225    420.02004    23.448643     36313.31 
 1001700    293.95492   -1435.9161    517.12073    412.18859    347.65562     36313.31 
 1001800    305.66149   -1452.5321    519.26908    450.72648    703.47811     36313.31 
 1001900    305.91731   -1428.7534    535.71076    492.10517    609.62747     36313.31 
 1002000    298.80412   -1454.2081     514.3867    413.11898    302.82475     36313.31 
 1002100    288.57452   -1432.6446    509.97189    383.94957    -349.0452     36313.31 
 1002200    294.82132   -1450.7801    514.40511     398.5318   -510.76667     36313.31 
 1002300    303.63305   -1464.2776    508.94809    419.47554   -121.92208     36313.31 
 1002400    300.95694   -1455.8221     522.8861    429.75202    156.03798     36313.31 
 1002500     299.6211   -1452.8994    527.11556    430.85571    535.93336     36313.31 
 1002600    303.60201   -1468.2262    506.47033    412.90865   -74.761498     36313.31 
 1002700    289.50789   -1469.7012    534.70437    375.85165    52.699806     36313.31 
 1002800    295.27989   -1493.1622    499.83167    343.65264    314.15344     36313.31 
 1002900    291.20026   -1455.4183    498.21385    361.30678   -269.54679     36313.31 
 1003000    304.23187   -1479.5384      496.282    394.26002   -135.38056     36313.31 
 1003100    298.23297   -1462.0095     504.7982    393.14297   -577.49789     36313.31 
 1003200    298.92208   -1452.7482    536.64586    437.37216   -464.84858     36313.31 
 1003300    300.24941   -1437.1558    489.18676     411.5154   -318.55376     36313.31 
 1003400    310.52475   -1452.5768    540.98163    494.41447   -186.20002     36313.31 
 1003500    300.40118   -1467.2483    536.56852    429.49183    121.16141     36313.31 
 1003600    296.85784   -1469.3731    492.95444    367.70927    190.01331     36313.31 
 1003700    298.28611   -1431.5296     518.0104     437.0757    373.06423     36313.31 
 1003800    293.83709   -1467.5641    521.26532    384.15162    140.04688     36313.31 
 1003900    295.07571   -1503.3924    495.66034    328.32663   -559.61431     36313.31 
 1004000    310.26874   -1504.9838    509.94265    409.80932   -676.16814     36313.31 
 1004100    297.17926   -1480.7445    505.30658    370.14533   -221.18504     36313.31 
 1004200    300.27461   -1509.7521       518.69    368.53649   -292.04241     36313.31 
 1004300    295.22329   -1486.0125    518.11469     368.8291   -456.47123     36313.31 
 1004400    299.29673   -1514.4624    522.22505    362.93351   -327.18291     36313.31 
 1004500    291.10817   -1501.1109    494.74255    311.72595   -787.72289     36313.31 
 1004600    293.17209   -1490.5888    521.78851     358.6391   -605.84583     36313.31 
 1004700      292.368   -1493.7327    515.01366    345.07961   -573.50218     36313.31 
 1004800    311.07835   -1465.9048    496.68567    439.29711   -313.17963     36313.31 
 1004900    296.08676   -1427.7652     519.8588    432.73015   -283.19092     36313.31 
 1005000    290.85774   -1486.7743    497.04864    327.23467   -394.41003     36313.31 
 1005100    294.99366   -1446.6092    512.29564    401.37362   -149.00994     36313.31 
 1005200    306.83923   -1451.2154    492.86205    430.96876   -113.06048     36313.31 
 1005300     297.6557   -1412.1429    531.66402     467.2616   -290.82997     36313.31 
 1005400    300.76583   -1410.6497    496.23383    447.40688   -694.64668     36313.31 
 1005500    293.09311   -1393.8593    499.30576    432.52826   -997.22008     36313.31 
 1005600    298.89705   -1405.9527    498.98187    446.39035    -1052.751     36313.31 
 1005614    291.62835   -1423.9584    515.24767    411.73885   -438.11511     36313.31 
Loop time of 605.733 on 32 procs for 1000000 steps with 1520 atoms

Performance: 142.637 ns/day, 0.168 hours/ns, 1650.893 timesteps/s
100.0% CPU use with 32 MPI tasks x no OpenMP threads

MPI task timing breakdown:
Section |  min time  |  avg time  |  max time  |%varavg| %total
---------------------------------------------------------------
Pair    | 247.22     | 281.15     | 325.2      |  95.5 | 46.41
Bond    | 1.4947     | 1.6509     | 1.7994     |   5.8 |  0.27
Neigh   | 39.078     | 39.164     | 39.239     |   1.0 |  6.47
Comm    | 227.93     | 271.75     | 305.58     |  96.7 | 44.86
Output  | 0.38597    | 0.40495    | 0.90408    |  14.1 |  0.07
Modify  | 8.5773     | 8.8335     | 8.9878     |   3.8 |  1.46
Other   |            | 2.783      |            |       |  0.46

Nlocal:        47.5000 ave          70 max          15 min
Histogram: 2 1 3 0 3 4 8 4 2 5
Nghost:        2040.53 ave        2186 max        1895 min
Histogram: 5 6 5 0 0 0 1 5 6 4
Neighs:        5510.78 ave       10177 max         993 min
Histogram: 2 4 1 3 3 9 4 2 3 1

Total # of neighbors = 176345
Ave neighs/atom = 116.01645
Ave special neighs/atom = 2.0486842
Neighbor list builds = 49601
Dangerous builds = 0
The system volume is 36313.3097800233
Lattice vectors
33.1147853917105 0 0
0 33.1147853917105 0
0 0 33.1147853917105
Total wall time: 0:10:10
