LAMMPS data file
 1509 atoms
 1008 bonds
 512 angles
 10 dihedrals
 2 impropers
 7 atom types
 6 bond types
 4 angle types
 2 dihedral types
 1 improper types
 0 15 xlo xhi
 0 15 ylo yhi
 0 15 zlo zhi
 0 0 0 xy xz yz

# Atom types
#
# 1 N_2
# 2 C_2
# 3 O_2
# 4 C_3
# 5 H__HB
# 6 H_
# 7 O_3

# Bond Coeffs
#
# 1 N_2*C_2
# 2 N_2*H__HB
# 3 C_2*O_2
# 4 C_2*C_3
# 5 C_3*H_
# 6 O_3*H__HB

# Angle Coeffs
#
# 1 N_2
# 2 C_2
# 3 C_3
# 4 O_3

# Dihedral Coeffs
#
# 1 C1
# 2 B1

# Inversion Coeffs
#
# 1 1

 Masses

 1 14.01
 2 12.01
 3 16
 4 12.01
 5 1.01
 6 1.01
 7 16

 Atoms # full

1 1 1 0 8.54443371373479 8.19884375326785 0.494218419659805
2 1 2 0 9.1015286680696 8.19765336356406 1.73055881163406
3 1 3 0 9.20620586503685 9.23146774216217 2.43277567631256
4 1 4 0 9.61707329932813 6.92833407068908 2.29006484012336
5 1 5 0 8.52330839879454 7.34105111555662 0.0406228930536945
6 1 6 0 9.55825238679667 6.12533856954186 1.54972413788804
7 1 6 0 10.6779874025919 7.06879464819934 2.51403577944712
8 1 6 0 8.85890129743963 6.50675951566825 3.50015113874482
9 1 5 0 8.00968358579569 9.23455413119713 -0.194404469677109
10 2 5 0 13.1000889236759 7.13377631310374 6.59740384784527
11 2 7 0 14.0600889236759 7.13377631310374 6.59740384784527
12 2 5 0 14.3000889236759 6.20377631310374 6.59740384784527
13 3 5 0 0.602162331780419 8.64156146109104 12.0215103076771
14 3 7 0 1.56216233178042 8.64156146109104 12.0215103076771
15 3 5 0 1.80216233178042 7.71156146109104 12.0215103076771
16 4 5 0 7.89913051572628 1.10798065125942 14.5218586956616
17 4 7 0 8.85913051572628 1.10798065125942 14.5218586956616
18 4 5 0 9.09913051572628 0.177980651259422 14.5218586956616
19 5 5 0 3.86231677534059 5.58331775054336 5.28029646375217
20 5 7 0 4.82231677534059 5.58331775054336 5.28029646375217
21 5 5 0 5.06231677534059 4.65331775054336 5.28029646375217
22 6 5 0 9.66502379902638 2.83093489398248 8.75775716383941
23 6 7 0 10.6250237990264 2.83093489398248 8.75775716383941
24 6 5 0 10.8650237990264 1.90093489398248 8.75775716383941
25 7 5 0 0.347677881801501 8.15221255686134 7.10739601403475
26 7 7 0 1.3076778818015 8.15221255686134 7.10739601403475
27 7 5 0 1.5476778818015 7.22221255686134 7.10739601403475
28 8 5 0 8.57989691474475 12.5879493127018 8.24745402904227
29 8 7 0 9.53989691474475 12.5879493127018 8.24745402904227
30 8 5 0 9.77989691474475 11.6579493127018 8.24745402904227
31 9 5 0 10.8715023547132 10.4780912391748 4.65619657770731
32 9 7 0 11.8315023547132 10.4780912391748 4.65619657770731
33 9 5 0 12.0715023547132 9.54809123917483 4.65619657770731
34 10 5 0 11.5600984675996 10.1807525385544 12.9426996654365
35 10 7 0 12.5200984675996 10.1807525385544 12.9426996654365
36 10 5 0 12.7600984675996 9.25075253855437 12.9426996654365
37 11 5 0 1.04685888553038 8.64417894784361 0.375600006664172
38 11 7 0 2.00685888553038 8.64417894784361 0.375600006664172
39 11 5 0 2.24685888553038 7.71417894784361 0.375600006664172
40 12 5 0 9.57896696680225 10.2517664739303 13.5779004672077
41 12 7 0 10.5389669668023 10.2517664739303 13.5779004672077
42 12 5 0 10.7789669668023 9.32176647393033 13.5779004672077
43 13 5 0 13.1183555668406 10.2662195606995 14.0961643494666
44 13 7 0 14.0783555668406 10.2662195606995 14.0961643494666
45 13 5 0 14.3183555668406 9.33621956069954 14.0961643494666
46 14 5 0 8.8993676290568 11.7422839793749 2.1717498684302
47 14 7 0 9.8593676290568 11.7422839793749 2.1717498684302
48 14 5 0 10.0993676290568 10.8122839793749 2.1717498684302
49 15 5 0 10.1520336982515 4.24689880380407 12.9898301116191
50 15 7 0 11.1120336982515 4.24689880380407 12.9898301116191
51 15 5 0 11.3520336982515 3.31689880380407 12.9898301116191
52 16 5 0 4.32124310449697 3.47334406612441 3.0798802874051
53 16 7 0 5.28124310449697 3.47334406612441 3.0798802874051
54 16 5 0 5.52124310449697 2.54334406612441 3.0798802874051
55 17 5 0 8.2019516410958 4.85485819325782 14.9210067267995
56 17 7 0 9.1619516410958 4.85485819325782 14.9210067267995
57 17 5 0 9.4019516410958 3.92485819325782 14.9210067267995
58 18 5 0 5.90071946309879 11.3676456983108 4.25578782451339
59 18 7 0 6.86071946309879 11.3676456983108 4.25578782451339
60 18 5 0 7.10071946309879 10.4376456983108 4.25578782451339
61 19 5 0 3.268786584232 12.7345160922874 1.79036507382989
62 19 7 0 4.228786584232 12.7345160922874 1.79036507382989
63 19 5 0 4.468786584232 11.8045160922874 1.79036507382989
64 20 5 0 3.27167326628231 9.553320657406 13.236143917311
65 20 7 0 4.23167326628231 9.553320657406 13.236143917311
66 20 5 0 4.47167326628231 8.623320657406 13.236143917311
67 21 5 0 11.9617556808237 2.66920250299387 14.9184080085251
68 21 7 0 12.9217556808237 2.66920250299387 14.9184080085251
69 21 5 0 13.1617556808237 1.73920250299387 14.9184080085251
70 22 5 0 3.10860160782002 4.30654343142174 10.6651169399265
71 22 7 0 4.06860160782002 4.30654343142174 10.6651169399265
72 22 5 0 4.30860160782002 3.37654343142174 10.6651169399265
73 23 5 0 2.89863166443072 11.7736176743079 3.69426307152025
74 23 7 0 3.85863166443072 11.7736176743079 3.69426307152025
75 23 5 0 4.09863166443072 10.8436176743079 3.69426307152025
76 24 5 0 6.73719740632921 7.21122243016958 2.20360045786947
77 24 7 0 7.69719740632921 7.21122243016958 2.20360045786947
78 24 5 0 7.93719740632921 6.28122243016958 2.20360045786947
79 25 5 0 6.97455468049273 8.14338638837449 11.5117565437686
80 25 7 0 7.93455468049273 8.14338638837449 11.5117565437686
81 25 5 0 8.17455468049273 7.21338638837449 11.5117565437686
82 26 5 0 4.60235784921795 13.5883540396485 1.31379529950209
83 26 7 0 5.56235784921795 13.5883540396485 1.31379529950209
84 26 5 0 5.80235784921795 12.6583540396485 1.31379529950209
85 27 5 0 9.69532833944075 5.02537480130792 4.8737128986977
86 27 7 0 10.6553283394407 5.02537480130792 4.8737128986977
87 27 5 0 10.8953283394407 4.09537480130792 4.8737128986977
88 28 5 0 5.8573283620365 0.518028631750494 6.96246263338253
89 28 7 0 6.8173283620365 0.518028631750494 6.96246263338253
90 28 5 0 7.0573283620365 -0.411971368249506 6.96246263338253
91 29 5 0 10.7320557818469 9.32295134448446 7.17013866640627
92 29 7 0 11.6920557818469 9.32295134448446 7.17013866640627
93 29 5 0 11.9320557818469 8.39295134448446 7.17013866640627
94 30 5 0 5.75559658507817 12.6696050101332 2.40369647392072
95 30 7 0 6.71559658507817 12.6696050101332 2.40369647392072
96 30 5 0 6.95559658507817 11.7396050101332 2.40369647392072
97 31 5 0 12.9384331642371 7.44727721944451 7.75086925481446
98 31 7 0 13.8984331642371 7.44727721944451 7.75086925481446
99 31 5 0 14.1384331642371 6.51727721944451 7.75086925481446
100 32 5 0 13.6472147055622 5.54496636655182 13.6914255295414
101 32 7 0 14.6072147055622 5.54496636655182 13.6914255295414
102 32 5 0 14.8472147055622 4.61496636655182 13.6914255295414
103 33 5 0 6.85782730506733 4.90153084084392 4.95972035452724
104 33 7 0 7.81782730506733 4.90153084084392 4.95972035452724
105 33 5 0 8.05782730506733 3.97153084084392 4.95972035452724
106 34 5 0 3.25202127263881 11.1507577651087 10.4909162863623
107 34 7 0 4.21202127263881 11.1507577651087 10.4909162863623
108 34 5 0 4.45202127263881 10.2207577651087 10.4909162863623
109 35 5 0 12.0712292524707 1.98809843202122 4.6565102704335
110 35 7 0 13.0312292524707 1.98809843202122 4.6565102704335
111 35 5 0 13.2712292524707 1.05809843202122 4.6565102704335
112 36 5 0 1.83017808987759 4.91706036654301 9.46964323637076
113 36 7 0 2.79017808987759 4.91706036654301 9.46964323637076
114 36 5 0 3.03017808987759 3.98706036654301 9.46964323637076
115 37 5 0 5.16500972371548 15.1557178741228 12.3291643580887
116 37 7 0 6.12500972371548 15.1557178741228 12.3291643580887
117 37 5 0 6.36500972371548 14.2257178741228 12.3291643580887
118 38 5 0 6.361309100613 14.358273046501 10.8509746694472
119 38 7 0 7.321309100613 14.358273046501 10.8509746694472
120 38 5 0 7.561309100613 13.428273046501 10.8509746694472
121 39 5 0 12.4752881393954 5.44659876422025 10.0583104009274
122 39 7 0 13.4352881393954 5.44659876422025 10.0583104009274
123 39 5 0 13.6752881393954 4.51659876422025 10.0583104009274
124 40 5 0 8.89545603931881 14.0778198190406 7.38356916583143
125 40 7 0 9.85545603931882 14.0778198190406 7.38356916583143
126 40 5 0 10.0954560393188 13.1478198190406 7.38356916583143
127 41 5 0 7.77376935744658 11.2977107164357 13.9993139065336
128 41 7 0 8.73376935744658 11.2977107164357 13.9993139065336
129 41 5 0 8.97376935744658 10.3677107164357 13.9993139065336
130 42 5 0 7.39723270453513 14.5047108600289 9.77091683889739
131 42 7 0 8.35723270453513 14.5047108600289 9.77091683889739
132 42 5 0 8.59723270453513 13.5747108600289 9.77091683889739
133 43 5 0 3.79471176696941 10.3643855119031 5.15717193949968
134 43 7 0 4.75471176696941 10.3643855119031 5.15717193949968
135 43 5 0 4.99471176696941 9.43438551190309 5.15717193949968
136 44 5 0 11.0820576762501 1.25470424228348 14.2866066482384
137 44 7 0 12.0420576762501 1.25470424228348 14.2866066482384
138 44 5 0 12.2820576762501 0.324704242283478 14.2866066482384
139 45 5 0 1.71381472304463 9.17227976181544 6.9068283343222
140 45 7 0 2.67381472304463 9.17227976181544 6.9068283343222
141 45 5 0 2.91381472304463 8.24227976181544 6.9068283343222
142 46 5 0 8.61570765308104 5.81099540036172 0.815897269640118
143 46 7 0 9.57570765308104 5.81099540036172 0.815897269640118
144 46 5 0 9.81570765308104 4.88099540036172 0.815897269640118
145 47 5 0 0.89347818793729 8.38870425283909 10.678237125976
146 47 7 0 1.85347818793729 8.38870425283909 10.678237125976
147 47 5 0 2.09347818793729 7.45870425283909 10.678237125976
148 48 5 0 5.7575229874067 2.66914038261399 3.18972878507338
149 48 7 0 6.7175229874067 2.66914038261399 3.18972878507338
150 48 5 0 6.9575229874067 1.73914038261399 3.18972878507338
151 49 5 0 11.6307478286047 2.21894966595806 4.7094844118692
152 49 7 0 12.5907478286047 2.21894966595806 4.7094844118692
153 49 5 0 12.8307478286047 1.28894966595806 4.7094844118692
154 50 5 0 0.780085769221187 14.9420126194041 14.9575164495036
155 50 7 0 1.74008576922119 14.9420126194041 14.9575164495036
156 50 5 0 1.98008576922119 14.0120126194041 14.9575164495036
157 51 5 0 13.9601177691668 6.55268461135216 10.3254245070275
158 51 7 0 14.9201177691668 6.55268461135216 10.3254245070275
159 51 5 0 15.1601177691668 5.62268461135216 10.3254245070275
160 52 5 0 8.49354887774214 15.0663416825142 7.56296694860794
161 52 7 0 9.45354887774214 15.0663416825142 7.56296694860794
162 52 5 0 9.69354887774214 14.1363416825142 7.56296694860794
163 53 5 0 7.76295725416392 9.29622263222933 14.1862789308652
164 53 7 0 8.72295725416392 9.29622263222933 14.1862789308652
165 53 5 0 8.96295725416392 8.36622263222933 14.1862789308652
166 54 5 0 10.9550289872289 2.73826832341962 10.3897436556872
167 54 7 0 11.9150289872289 2.73826832341962 10.3897436556872
168 54 5 0 12.1550289872289 1.80826832341962 10.3897436556872
169 55 5 0 12.461418646127 0.466294289045036 9.40934466314502
170 55 7 0 13.421418646127 0.466294289045036 9.40934466314502
171 55 5 0 13.661418646127 -0.463705710954964 9.40934466314502
172 56 5 0 13.8446509237122 14.6914588908572 11.9717815029435
173 56 7 0 14.8046509237122 14.6914588908572 11.9717815029435
174 56 5 0 15.0446509237122 13.7614588908572 11.9717815029435
175 57 5 0 11.6380210399814 14.4165451514442 5.14321985305287
176 57 7 0 12.5980210399814 14.4165451514442 5.14321985305287
177 57 5 0 12.8380210399814 13.4865451514442 5.14321985305287
178 58 5 0 11.4280934496503 10.9852850022167 10.6310694711283
179 58 7 0 12.3880934496503 10.9852850022167 10.6310694711283
180 58 5 0 12.6280934496503 10.0552850022167 10.6310694711283
181 59 5 0 6.41775060838088 10.0541434580833 12.7880184352398
182 59 7 0 7.37775060838088 10.0541434580833 12.7880184352398
183 59 5 0 7.61775060838088 9.12414345808327 12.7880184352398
184 60 5 0 9.65233828450553 10.8510088342614 1.39288271195255
185 60 7 0 10.6123382845055 10.8510088342614 1.39288271195255
186 60 5 0 10.8523382845055 9.92100883426145 1.39288271195255
187 61 5 0 5.47890041300096 5.20262129878625 10.2635205024853
188 61 7 0 6.43890041300096 5.20262129878625 10.2635205024853
189 61 5 0 6.67890041300096 4.27262129878625 10.2635205024853
190 62 5 0 0.443978957338259 7.36671097384766 13.220507997321
191 62 7 0 1.40397895733826 7.36671097384766 13.220507997321
192 62 5 0 1.64397895733826 6.43671097384766 13.220507997321
193 63 5 0 13.809562771786 1.89712588949129 3.54731601546519
194 63 7 0 14.769562771786 1.89712588949129 3.54731601546519
195 63 5 0 15.009562771786 0.96712588949129 3.54731601546519
196 64 5 0 8.85655061851256 7.21170111716725 13.3982177311555
197 64 7 0 9.81655061851256 7.21170111716725 13.3982177311555
198 64 5 0 10.0565506185126 6.28170111716725 13.3982177311555
199 65 5 0 8.05299439162016 1.54326921020634 3.49922067951411
200 65 7 0 9.01299439162016 1.54326921020634 3.49922067951411
201 65 5 0 9.25299439162016 0.613269210206345 3.49922067951411
202 66 5 0 7.75531832987443 5.25805855327286 12.8222548600752
203 66 7 0 8.71531832987443 5.25805855327286 12.8222548600752
204 66 5 0 8.95531832987443 4.32805855327286 12.8222548600752
205 67 5 0 13.1579409485869 9.62912827305496 10.5613186501432
206 67 7 0 14.1179409485869 9.62912827305496 10.5613186501432
207 67 5 0 14.3579409485869 8.69912827305496 10.5613186501432
208 68 5 0 3.95595848953351 5.72657702066004 10.5889552761801
209 68 7 0 4.91595848953351 5.72657702066004 10.5889552761801
210 68 5 0 5.15595848953351 4.79657702066004 10.5889552761801
211 69 5 0 13.0143961419538 10.4826176100783 4.54860881203786
212 69 7 0 13.9743961419538 10.4826176100783 4.54860881203786
213 69 5 0 14.2143961419538 9.55261761007831 4.54860881203786
214 70 5 0 13.918901297003 14.6758330081962 12.2546428022906
215 70 7 0 14.878901297003 14.6758330081962 12.2546428022906
216 70 5 0 15.118901297003 13.7458330081962 12.2546428022906
217 71 5 0 10.3880753069837 4.04810786055401 5.49184984643944
218 71 7 0 11.3480753069837 4.04810786055401 5.49184984643944
219 71 5 0 11.5880753069837 3.11810786055401 5.49184984643944
220 72 5 0 9.41728342833929 12.4445231938176 10.8880835096352
221 72 7 0 10.3772834283393 12.4445231938176 10.8880835096352
222 72 5 0 10.6172834283393 11.5145231938176 10.8880835096352
223 73 5 0 13.0642318753246 1.78314326255582 7.86288328352384
224 73 7 0 14.0242318753246 1.78314326255582 7.86288328352384
225 73 5 0 14.2642318753246 0.853143262555823 7.86288328352384
226 74 5 0 7.09999804428779 0.999885354368016 3.34934040438384
227 74 7 0 8.05999804428779 0.999885354368016 3.34934040438384
228 74 5 0 8.29999804428779 0.0698853543680161 3.34934040438384
229 75 5 0 8.73426580030471 11.5108949031588 13.6226873716805
230 75 7 0 9.69426580030471 11.5108949031588 13.6226873716805
231 75 5 0 9.93426580030471 10.5808949031588 13.6226873716805
232 76 5 0 4.92225262147374 12.4306433488987 0.415362735511735
233 76 7 0 5.88225262147374 12.4306433488987 0.415362735511735
234 76 5 0 6.12225262147374 11.5006433488987 0.415362735511735
235 77 5 0 10.6473145417124 2.24302295636386 2.55414533196017
236 77 7 0 11.6073145417124 2.24302295636386 2.55414533196017
237 77 5 0 11.8473145417124 1.31302295636386 2.55414533196017
238 78 5 0 6.6519042353332 2.53085503512062 3.61213018884882
239 78 7 0 7.6119042353332 2.53085503512062 3.61213018884882
240 78 5 0 7.8519042353332 1.60085503512062 3.61213018884882
241 79 5 0 13.6463421843667 12.5502083303314 4.33124213945121
242 79 7 0 14.6063421843667 12.5502083303314 4.33124213945121
243 79 5 0 14.8463421843667 11.6202083303314 4.33124213945121
244 80 5 0 12.9457407064922 10.698859976083 10.5871699238196
245 80 7 0 13.9057407064922 10.698859976083 10.5871699238196
246 80 5 0 14.1457407064922 9.76885997608304 10.5871699238196
247 81 5 0 8.1416196939256 13.2027806334104 3.99406382697634
248 81 7 0 9.1016196939256 13.2027806334104 3.99406382697634
249 81 5 0 9.3416196939256 12.2727806334104 3.99406382697634
250 82 5 0 4.20097008624114 3.31987937836908 11.2303127150517
251 82 7 0 5.16097008624114 3.31987937836908 11.2303127150517
252 82 5 0 5.40097008624114 2.38987937836908 11.2303127150517
253 83 5 0 -0.497906852541491 4.23880504252389 4.55119586549699
254 83 7 0 0.462093147458509 4.23880504252389 4.55119586549699
255 83 5 0 0.702093147458509 3.30880504252389 4.55119586549699
256 84 5 0 11.6592404076084 7.43985646212473 1.31733624148183
257 84 7 0 12.6192404076084 7.43985646212473 1.31733624148183
258 84 5 0 12.8592404076084 6.50985646212474 1.31733624148183
259 85 5 0 5.51466877033934 6.71494380495511 2.38739999360405
260 85 7 0 6.47466877033934 6.71494380495511 2.38739999360405
261 85 5 0 6.71466877033934 5.78494380495511 2.38739999360405
262 86 5 0 10.9875297678821 1.79975346703082 11.6847312846221
263 86 7 0 11.9475297678821 1.79975346703082 11.6847312846221
264 86 5 0 12.1875297678821 0.869753467030823 11.6847312846221
265 87 5 0 7.62633132442832 8.48176432930864 2.99117613583803
266 87 7 0 8.58633132442832 8.48176432930864 2.99117613583803
267 87 5 0 8.82633132442832 7.55176432930864 2.99117613583803
268 88 5 0 10.4943948348239 2.23592674633488 3.81167934508994
269 88 7 0 11.4543948348239 2.23592674633488 3.81167934508994
270 88 5 0 11.6943948348239 1.30592674633488 3.81167934508994
271 89 5 0 7.24887595206499 11.6896832237858 6.65962186641991
272 89 7 0 8.20887595206499 11.6896832237858 6.65962186641991
273 89 5 0 8.44887595206499 10.7596832237858 6.65962186641991
274 90 5 0 8.3467962259613 14.5277854292095 10.9899076935835
275 90 7 0 9.3067962259613 14.5277854292095 10.9899076935835
276 90 5 0 9.5467962259613 13.5977854292095 10.9899076935835
277 91 5 0 8.5431908878684 13.6575740312133 8.62393726129085
278 91 7 0 9.5031908878684 13.6575740312133 8.62393726129085
279 91 5 0 9.7431908878684 12.7275740312133 8.62393726129085
280 92 5 0 10.1167439720314 12.6858953018114 2.73031513905153
281 92 7 0 11.0767439720314 12.6858953018114 2.73031513905153
282 92 5 0 11.3167439720314 11.7558953018114 2.73031513905153
283 93 5 0 6.3451760045439 8.84488411172293 2.98036419320852
284 93 7 0 7.3051760045439 8.84488411172293 2.98036419320852
285 93 5 0 7.5451760045439 7.91488411172293 2.98036419320852
286 94 5 0 6.95576849553734 6.24286032555625 9.92088930099271
287 94 7 0 7.91576849553734 6.24286032555625 9.92088930099271
288 94 5 0 8.15576849553734 5.31286032555625 9.92088930099271
289 95 5 0 10.1248667242192 10.384946610257 1.3770882517565
290 95 7 0 11.0848667242192 10.384946610257 1.3770882517565
291 95 5 0 11.3248667242192 9.45494661025703 1.3770882517565
292 96 5 0 6.19249742754735 13.7052778554522 12.098184262868
293 96 7 0 7.15249742754735 13.7052778554522 12.098184262868
294 96 5 0 7.39249742754735 12.7752778554522 12.098184262868
295 97 5 0 7.92425007370301 14.7198925660364 2.86751681822352
296 97 7 0 8.88425007370301 14.7198925660364 2.86751681822352
297 97 5 0 9.12425007370301 13.7898925660364 2.86751681822352
298 98 5 0 14.2584526624717 0.411708695292473 8.33524720743299
299 98 7 0 15.2184526624717 0.411708695292473 8.33524720743299
300 98 5 0 15.4584526624717 -0.518291304707527 8.33524720743299
301 99 5 0 -0.129887449583039 7.45545692666434 2.53441227483563
302 99 7 0 0.830112550416961 7.45545692666434 2.53441227483563
303 99 5 0 1.07011255041696 6.52545692666434 2.53441227483563
304 100 5 0 11.7481813200004 8.70170647086576 3.56332553434186
305 100 7 0 12.7081813200004 8.70170647086576 3.56332553434186
306 100 5 0 12.9481813200004 7.77170647086576 3.56332553434186
307 101 5 0 6.04755488617346 3.58774938894436 12.3517150303815
308 101 7 0 7.00755488617346 3.58774938894436 12.3517150303815
309 101 5 0 7.24755488617346 2.65774938894436 12.3517150303815
310 102 5 0 8.84872299662791 2.36458653625101 0.615050584310666
311 102 7 0 9.80872299662791 2.36458653625101 0.615050584310666
312 102 5 0 10.0487229966279 1.43458653625101 0.615050584310666
313 103 5 0 0.0846800340525806 11.5367024442554 11.0718690615613
314 103 7 0 1.04468003405258 11.5367024442554 11.0718690615613
315 103 5 0 1.28468003405258 10.6067024442554 11.0718690615613
316 104 5 0 12.7372848316748 9.24756949808449 8.61811220529489
317 104 7 0 13.6972848316748 9.24756949808449 8.61811220529489
318 104 5 0 13.9372848316748 8.31756949808449 8.61811220529489
319 105 5 0 7.32052873165347 5.94820649520494 14.8343250446487
320 105 7 0 8.28052873165347 5.94820649520494 14.8343250446487
321 105 5 0 8.52052873165347 5.01820649520494 14.8343250446487
322 106 5 0 7.02282029131427 4.91060603916645 8.35915290866978
323 106 7 0 7.98282029131427 4.91060603916645 8.35915290866978
324 106 5 0 8.22282029131427 3.98060603916645 8.35915290866978
325 107 5 0 8.70062197602354 8.02400474011898 3.446858151583
326 107 7 0 9.66062197602354 8.02400474011898 3.446858151583
327 107 5 0 9.90062197602354 7.09400474011898 3.446858151583
328 108 5 0 1.91668089872226 10.9282843761053 0.831345927435905
329 108 7 0 2.87668089872226 10.9282843761053 0.831345927435905
330 108 5 0 3.11668089872226 9.99828437610529 0.831345927435905
331 109 5 0 7.45706330912188 12.008561393423 6.0614225117024
332 109 7 0 8.41706330912188 12.008561393423 6.0614225117024
333 109 5 0 8.65706330912188 11.078561393423 6.0614225117024
334 110 5 0 12.9467357152328 11.9347698978987 10.2023641322739
335 110 7 0 13.9067357152328 11.9347698978987 10.2023641322739
336 110 5 0 14.1467357152328 11.0047698978987 10.2023641322739
337 111 5 0 1.8416922788322 3.66826032445766 14.4741540821269
338 111 7 0 2.8016922788322 3.66826032445766 14.4741540821269
339 111 5 0 3.0416922788322 2.73826032445766 14.4741540821269
340 112 5 0 5.47437342742458 9.75575186120346 4.47722198674455
341 112 7 0 6.43437342742458 9.75575186120346 4.47722198674455
342 112 5 0 6.67437342742458 8.82575186120346 4.47722198674455
343 113 5 0 7.38281891492195 12.0592968437728 6.70832807547413
344 113 7 0 8.34281891492195 12.0592968437728 6.70832807547413
345 113 5 0 8.58281891492195 11.1292968437728 6.70832807547413
346 114 5 0 0.276983876684681 2.78981139807962 4.10362773807719
347 114 7 0 1.23698387668468 2.78981139807962 4.10362773807719
348 114 5 0 1.47698387668468 1.85981139807962 4.10362773807719
349 115 5 0 14.0047110656463 13.7167395178135 0.78367066802457
350 115 7 0 14.9647110656463 13.7167395178135 0.78367066802457
351 115 5 0 15.2047110656463 12.7867395178135 0.78367066802457
352 116 5 0 0.100150638464838 5.29218219261616 7.80550551018678
353 116 7 0 1.06015063846484 5.29218219261616 7.80550551018678
354 116 5 0 1.30015063846484 4.36218219261616 7.80550551018678
355 117 5 0 -0.251987191876397 12.3016916382499 6.69731734902598
356 117 7 0 0.708012808123603 12.3016916382499 6.69731734902598
357 117 5 0 0.948012808123603 11.3716916382499 6.69731734902598
358 118 5 0 4.34336890161037 10.8384977855626 3.49893435370177
359 118 7 0 5.30336890161037 10.8384977855626 3.49893435370177
360 118 5 0 5.54336890161037 9.90849778556265 3.49893435370177
361 119 5 0 8.27535441887565 15.0369323817454 13.4596459474415
362 119 7 0 9.23535441887565 15.0369323817454 13.4596459474415
363 119 5 0 9.47535441887565 14.1069323817454 13.4596459474415
364 120 5 0 8.5245827589836 5.17306049162522 4.60298199788667
365 120 7 0 9.4845827589836 5.17306049162522 4.60298199788667
366 120 5 0 9.7245827589836 4.24306049162522 4.60298199788667
367 121 5 0 2.65879316182807 1.36952465441078 4.77602337137796
368 121 7 0 3.61879316182807 1.36952465441078 4.77602337137796
369 121 5 0 3.85879316182807 0.439524654410779 4.77602337137796
370 122 5 0 7.81925405535847 9.87851100083441 11.3465388806071
371 122 7 0 8.77925405535847 9.87851100083441 11.3465388806071
372 122 5 0 9.01925405535847 8.94851100083441 11.3465388806071
373 123 5 0 -0.462050317581743 7.81627374625765 3.67142324801534
374 123 7 0 0.497949682418257 7.81627374625765 3.67142324801534
375 123 5 0 0.737949682418257 6.88627374625765 3.67142324801534
376 124 5 0 2.2879347838182 0.50777222070843 9.39017159747891
377 124 7 0 3.2479347838182 0.50777222070843 9.39017159747891
378 124 5 0 3.4879347838182 -0.42222777929157 9.39017159747891
379 125 5 0 12.2268809638638 12.4492353076953 5.51722225849517
380 125 7 0 13.1868809638638 12.4492353076953 5.51722225849517
381 125 5 0 13.4268809638638 11.5192353076953 5.51722225849517
382 126 5 0 10.8163067924045 13.8925079295319 11.301843195688
383 126 7 0 11.7763067924045 13.8925079295319 11.301843195688
384 126 5 0 12.0163067924045 12.9625079295319 11.301843195688
385 127 5 0 3.82373100888915 7.69573339767754 7.7715503750369
386 127 7 0 4.78373100888915 7.69573339767754 7.7715503750369
387 127 5 0 5.02373100888915 6.76573339767754 7.7715503750369
388 128 5 0 -0.349338858649135 1.69988979975693 3.37948775617406
389 128 7 0 0.610661141350865 1.69988979975693 3.37948775617406
390 128 5 0 0.850661141350865 0.769889799756929 3.37948775617406
391 129 5 0 9.57555692570284 3.17822003195994 5.69564154138789
392 129 7 0 10.5355569257028 3.17822003195994 5.69564154138789
393 129 5 0 10.7755569257028 2.24822003195994 5.69564154138789
394 130 5 0 8.21512577167712 11.8436203121115 0.114287469768897
395 130 7 0 9.17512577167712 11.8436203121115 0.114287469768897
396 130 5 0 9.41512577167712 10.9136203121115 0.114287469768897
397 131 5 0 2.2520713023562 10.1500223616045 2.92169786989689
398 131 7 0 3.2120713023562 10.1500223616045 2.92169786989689
399 131 5 0 3.4520713023562 9.2200223616045 2.92169786989689
400 132 5 0 5.83575040960684 5.64770964015275 11.6637513949536
401 132 7 0 6.79575040960684 5.64770964015275 11.6637513949536
402 132 5 0 7.03575040960684 4.71770964015275 11.6637513949536
403 133 5 0 0.385755362659693 6.74834034213796 4.98487290227786
404 133 7 0 1.34575536265969 6.74834034213796 4.98487290227786
405 133 5 0 1.58575536265969 5.81834034213796 4.98487290227786
406 134 5 0 5.53874829129316 12.8094449561927 14.7791255707853
407 134 7 0 6.49874829129316 12.8094449561927 14.7791255707853
408 134 5 0 6.73874829129316 11.8794449561927 14.7791255707853
409 135 5 0 0.518527020905167 14.939070564406 9.14420024841093
410 135 7 0 1.47852702090517 14.939070564406 9.14420024841093
411 135 5 0 1.71852702090517 14.009070564406 9.14420024841093
412 136 5 0 2.76022016929463 0.809191015260294 3.43718322110362
413 136 7 0 3.72022016929463 0.809191015260294 3.43718322110362
414 136 5 0 3.96022016929463 -0.120808984739706 3.43718322110362
415 137 5 0 13.2641394172981 9.09499416867271 9.28789497236721
416 137 7 0 14.2241394172981 9.09499416867271 9.28789497236721
417 137 5 0 14.4641394172981 8.16499416867271 9.28789497236721
418 138 5 0 13.1286597163137 13.7934053111263 12.971491656499
419 138 7 0 14.0886597163137 13.7934053111263 12.971491656499
420 138 5 0 14.3286597163137 12.8634053111263 12.971491656499
421 139 5 0 10.7231419456378 0.873560609007254 3.30517101567239
422 139 7 0 11.6831419456378 0.873560609007254 3.30517101567239
423 139 5 0 11.9231419456378 -0.0564393909927458 3.30517101567239
424 140 5 0 7.47049924146384 2.26358046097681 10.4982482618652
425 140 7 0 8.43049924146384 2.26358046097681 10.4982482618652
426 140 5 0 8.67049924146384 1.33358046097681 10.4982482618652
427 141 5 0 7.00338559501804 5.71984333842061 8.1335447228048
428 141 7 0 7.96338559501804 5.71984333842061 8.1335447228048
429 141 5 0 8.20338559501804 4.78984333842061 8.1335447228048
430 142 5 0 -0.176615585368127 5.51831199479289 0.260828677564859
431 142 7 0 0.783384414631873 5.51831199479289 0.260828677564859
432 142 5 0 1.02338441463187 4.58831199479289 0.260828677564859
433 143 5 0 0.319313151268289 5.28293616761453 12.4299616820645
434 143 7 0 1.27931315126829 5.28293616761453 12.4299616820645
435 143 5 0 1.51931315126829 4.35293616761453 12.4299616820645
436 144 5 0 14.1656663424522 7.30784267460927 12.6310604601167
437 144 7 0 15.1256663424522 7.30784267460927 12.6310604601167
438 144 5 0 15.3656663424522 6.37784267460927 12.6310604601167
439 145 5 0 6.11826066786423 8.58458270126954 4.8820075741969
440 145 7 0 7.07826066786423 8.58458270126954 4.8820075741969
441 145 5 0 7.31826066786423 7.65458270126954 4.8820075741969
442 146 5 0 7.64306631797925 8.97086096619256 12.6375415676739
443 146 7 0 8.60306631797925 8.97086096619256 12.6375415676739
444 146 5 0 8.84306631797925 8.04086096619256 12.6375415676739
445 147 5 0 10.1869260314573 0.583475988069549 10.3412788419519
446 147 7 0 11.1469260314573 0.583475988069549 10.3412788419519
447 147 5 0 11.3869260314573 -0.346524011930451 10.3412788419519
448 148 5 0 3.44517882258631 8.75914045883343 8.65665570250712
449 148 7 0 4.40517882258631 8.75914045883343 8.65665570250712
450 148 5 0 4.64517882258631 7.82914045883343 8.65665570250712
451 149 5 0 13.0537616384402 12.2888666628301 10.6710679200478
452 149 7 0 14.0137616384402 12.2888666628301 10.6710679200478
453 149 5 0 14.2537616384402 11.3588666628301 10.6710679200478
454 150 5 0 9.1735946286656 1.34668362600729 9.48697907966562
455 150 7 0 10.1335946286656 1.34668362600729 9.48697907966562
456 150 5 0 10.3735946286656 0.416683626007289 9.48697907966562
457 151 5 0 13.0157922631782 8.50155594101176 4.0225624514278
458 151 7 0 13.9757922631782 8.50155594101176 4.0225624514278
459 151 5 0 14.2157922631782 7.57155594101176 4.0225624514278
460 152 5 0 4.30989436383359 9.6454349443689 4.39708058489487
461 152 7 0 5.26989436383359 9.6454349443689 4.39708058489487
462 152 5 0 5.50989436383359 8.7154349443689 4.39708058489487
463 153 5 0 7.20232921114191 6.04322235257365 13.269893451361
464 153 7 0 8.16232921114191 6.04322235257365 13.269893451361
465 153 5 0 8.40232921114191 5.11322235257365 13.269893451361
466 154 5 0 11.8027753410581 12.9361282479391 9.19482494937256
467 154 7 0 12.7627753410582 12.9361282479391 9.19482494937256
468 154 5 0 13.0027753410582 12.0061282479391 9.19482494937256
469 155 5 0 6.50465812694281 7.3362562436983 1.90952911041677
470 155 7 0 7.46465812694281 7.3362562436983 1.90952911041677
471 155 5 0 7.70465812694281 6.4062562436983 1.90952911041677
472 156 5 0 0.717322273850441 4.71788352047093 10.449692204129
473 156 7 0 1.67732227385044 4.71788352047093 10.449692204129
474 156 5 0 1.91732227385044 3.78788352047093 10.449692204129
475 157 5 0 11.0865001862124 4.52166966320015 2.88883562665433