LAMMPS (29 Sep 2021 - Update 1)
# Test LAMMPS input file for single DeFDe

# Initialize simulation

clear

units real
atom_style full
boundary p p p
dielectric 1
special_bonds dreiding

bond_style harmonic
angle_style harmonic
dihedral_style harmonic
improper_style umbrella
pair_style hybrid/overlay hbond/dreiding/lj 4 9.0 11.0 90 lj/cut 8.50000

# Read data file
read_data frag5.dat
Reading data file ...
  triclinic box = (0.0000000 0.0000000 0.0000000) to (15.000000 15.000000 15.000000) with tilt (0.0000000 0.0000000 0.0000000)
  2 by 4 by 4 MPI processor grid
  reading atoms ...
  1509 atoms
  scanning bonds ...
  3 = max bonds/atom
  scanning angles ...
  6 = max angles/atom
  scanning dihedrals ...
  6 = max dihedrals/atom
  scanning impropers ...
  1 = max impropers/atom
  reading bonds ...
  1008 bonds
  reading angles ...
  512 angles
  reading dihedrals ...
  10 dihedrals
  reading impropers ...
  2 impropers
Finding 1-2 1-3 1-4 neighbors ...
  special bond factors lj:    0        0        1       
  special bond factors coul:  0        0        1       
     4 = max # of 1-2 neighbors
     5 = max # of 1-3 neighbors
     8 = max # of special neighbors
  special bonds CPU = 0.002 seconds
  read_data CPU = 0.017 seconds

# Dreiding potential information

bond_coeff 1 700 1.275
bond_coeff 2 350 0.935
bond_coeff 3 700 1.22
bond_coeff 4 350 1.43
bond_coeff 5 350 1.09
bond_coeff 6 350 0.98

angle_coeff 1 50 120
angle_coeff 2 50 120
angle_coeff 3 50 109.471
angle_coeff 4 50 104.51

dihedral_coeff 1 5.625 -1 2
dihedral_coeff 2 0.0833333333333333 -1 6

improper_coeff 1 40 0

pair_coeff 1 1 lj/cut 0.0774 3.6621
pair_coeff 1 2 lj/cut 0.0857947550844456 3.77835472527395
pair_coeff 1 3 lj/cut 0.0860649754545948 3.53100349192691
pair_coeff 1 4 lj/cut 0.0857947550844456 3.77835472527395
pair_coeff 1 5 lj/cut 0.00278208554864871 3.41951536039831
pair_coeff 1 6 lj/cut 0.0342998542270955 3.42058613398347
pair_coeff 1 7 lj/cut 0.0860649754545948 3.53100349192691
pair_coeff 2 2 lj/cut 0.0951 3.8983
pair_coeff 2 3 lj/cut 0.0953995283007206 3.64309650983885
pair_coeff 2 4 lj/cut 0.0951 3.8983
pair_coeff 2 5 lj/cut 0.00308382878902186 3.52806914614779
pair_coeff 2 6 lj/cut 0.0380199947396104 3.52917391183829
pair_coeff 2 7 lj/cut 0.0953995283007206 3.64309650983885
pair_coeff 3 3 lj/cut 0.0957 3.4046
pair_coeff 3 4 lj/cut 0.0953995283007206 3.64309650983885
pair_coeff 3 5 lj/cut 0.0030935416596516 3.29710294046152
pair_coeff 3 6 lj/cut 0.0381397430510485 3.29813538230316
pair_coeff 3 7 lj/cut 0.0957 3.4046
pair_coeff 4 4 lj/cut 0.0951 3.8983
pair_coeff 4 5 lj/cut 0.00308382878902186 3.52806914614779
pair_coeff 4 6 lj/cut 0.0380199947396104 3.52917391183829
pair_coeff 4 7 lj/cut 0.0953995283007206 3.64309650983885
pair_coeff 5 5 lj/cut 1e-04 3.193
pair_coeff 5 6 lj/cut 0.0012328828005938 3.19399984345648
pair_coeff 5 7 lj/cut 0.0030935416596516 3.29710294046152
pair_coeff 6 6 lj/cut 0.0152 3.195
pair_coeff 6 7 lj/cut 0.0381397430510485 3.29813538230316
pair_coeff 7 7 lj/cut 0.0957 3.4046
pair_coeff 1 1 hbond/dreiding/lj 5 j 9.50 2.75 4 9.0 11.0 90
pair_coeff 1 3 hbond/dreiding/lj 5 i 9.50 2.75 4 9.0 11.0 90
pair_coeff 1 7 hbond/dreiding/lj 5 i 9.50 2.75 4 9.0 11.0 90
pair_coeff 1 7 hbond/dreiding/lj 5 j 9.50 2.75 4 9.0 11.0 90
pair_coeff 3 7 hbond/dreiding/lj 5 j 9.50 2.75 4 9.0 11.0 90
pair_coeff 7 7 hbond/dreiding/lj 5 j 9.50 2.75 4 9.0 11.0 90

neighbor 2 bin
neigh_modify every 2 one 10000

# Gemoetric relaxation
fix 1 all box/relax iso 1.0 vmax 0.001
minimize 1.0e-4 1.0e-6 10000 10000
WARNING: Using 'neigh_modify every 1 delay 0 check yes' setting during minimization (../min.cpp:188)
Neighbor list info ...
  update every 1 steps, delay 0 steps, check yes
  max neighbors/atom: 10000, page size: 100000
  master list distance cutoff = 13
  ghost atom cutoff = 13
  binsize = 6.5, bins = 3 3 3
  3 neighbor lists, perpetual/occasional/extra = 3 0 0
  (1) pair hbond/dreiding/lj, perpetual, skip from (3)
      attributes: full, newton on
      pair build: skip
      stencil: none
      bin: none
  (2) pair lj/cut, perpetual, half/full from (3)
      attributes: half, newton on
      pair build: halffull/newton
      stencil: none
      bin: none
  (3) neighbor class addition, perpetual
      attributes: full, newton on
      pair build: full/bin
      stencil: full/bin/3d
      bin: standard
Per MPI rank memory allocation (min/avg/max) = 13.27 | 13.59 | 14.06 Mbytes
Step Temp E_pair E_mol TotEng Press Volume 
       0            0 5.5166418e+16    262.99836 5.5166418e+16 4.483169e+18         3375 
    5302            0   -1200.8938    24.470377   -1176.4234    103.95049    37625.902 
Loop time of 4.5882 on 32 procs for 5302 steps with 1509 atoms

100.0% CPU use with 32 MPI tasks x no OpenMP threads

Minimization stats:
  Stopping criterion = energy tolerance
  Energy initial, next-to-last, final = 
    5.51664183731254e+16  -1175.84594790874  -1175.92392835067
  Force two-norm initial, final = 5.6022979e+18 102.39927
  Force max component initial, final = 2.2311462e+18 75.864996
  Final line search alpha, max atom move = 1.6533687e-05 0.0012543281
  Iterations, force evaluations = 5302 5303

MPI task timing breakdown:
Section |  min time  |  avg time  |  max time  |%varavg| %total
---------------------------------------------------------------
Pair    | 1.3561     | 2.5291     | 3.8873     |  40.5 | 55.12
Bond    | 0.006579   | 0.010891   | 0.017867   |   2.4 |  0.24
Neigh   | 0.094021   | 0.094254   | 0.094545   |   0.1 |  2.05
Comm    | 0.25417    | 1.6126     | 2.7926     |  50.9 | 35.15
Output  | 0          | 0          | 0          |   0.0 |  0.00
Modify  | 0          | 0          | 0          |   0.0 |  0.00
Other   |            | 0.3413     |            |       |  7.44

Nlocal:        47.1562 ave          68 max          22 min
Histogram: 1 0 4 3 3 9 4 3 3 2
Nghost:        1901.81 ave        1994 max        1805 min
Histogram: 2 10 3 1 0 0 0 5 8 3
Neighs:        4931.91 ave        8080 max        2045 min
Histogram: 1 3 4 2 11 3 3 0 2 3

Total # of neighbors = 157821
Ave neighs/atom = 104.58648
Ave special neighs/atom = 2.0145792
Neighbor list builds = 94
Dangerous builds = 0

# MD simulation
velocity all create 300.0 12345 rot yes dist gaussian
timestep 1.0
fix 2 all nvt temp 300.0 300.0 1

# Compute interaction energy
group WAT molecule <> 2 501
1500 atoms in group WAT
group MOL molecule 1
9 atoms in group MOL

compute w WAT group/group MOL pair yes
fix 3 all ave/time 10 5 100 c_w file outa

# Outputs
thermo 100 # Output thermodynamic data every nth step
#dump mf1 all xyz 10000 mol_*.xyz

# Run
run 1000000
Neighbor list info ...
  update every 2 steps, delay 10 steps, check yes
  max neighbors/atom: 10000, page size: 100000
  master list distance cutoff = 13
  ghost atom cutoff = 13
  binsize = 6.5, bins = 6 6 6
  4 neighbor lists, perpetual/occasional/extra = 3 1 0
  (1) pair hbond/dreiding/lj, perpetual, skip from (4)
      attributes: full, newton on
      pair build: skip
      stencil: none
      bin: none
  (2) pair lj/cut, perpetual, half/full from (4)
      attributes: half, newton on
      pair build: halffull/newton
      stencil: none
      bin: none
  (3) compute group/group, occasional, copy from (2)
      attributes: half, newton on
      pair build: copy
      stencil: none
      bin: none
  (4) neighbor class addition, perpetual
      attributes: full, newton on
      pair build: full/bin
      stencil: full/bin/3d
      bin: standard
Per MPI rank memory allocation (min/avg/max) = 12.12 | 12.15 | 12.52 Mbytes
Step Temp E_pair E_mol TotEng Press Volume 
    5302          300   -1200.8938    24.470377    172.09502    1742.2859    37625.902 
    5400    293.61322   -1146.6226    213.28452    386.47146    959.25349    37625.902 
    5500    295.81569   -1152.5714    176.75074    353.88906    21.398559    37625.902 
    5600    289.93791   -1214.9943    183.37657    271.67098   -157.21044    37625.902 
    5700    300.66392   -1139.0778    177.66436    390.08938    25.130892    37625.902 
    5800    292.57277   -1163.8432    204.70794    355.99731    -383.5029    37625.902 
    5900    302.31935   -1136.1562     180.9908    403.77863   -380.31411    37625.902 
    6000    299.53339    -1138.722    200.17781    407.87682     4.630993    37625.902 
    6100     299.4711   -1121.2591    183.69581    408.57773    52.567195    37625.902 
    6200    300.92461   -1161.1107    202.18559    393.74954    -166.3321    37625.902 
    6300    292.79675   -1149.2381    201.71015    368.61141    78.697573    37625.902 
    6400      294.959   -1131.8815    212.39718    406.37452    544.00625    37625.902 
    6500     300.2191   -1146.2878    196.48899    399.70448    356.92148    37625.902 
    6600    299.47224   -1138.6758    201.67753     409.1479    775.74204    37625.902 
    6700    299.05347   -1149.2199    203.82536    398.86926    626.48075    37625.902 
    6800    293.44335   -1132.3217    203.81779    390.54202    734.25997    37625.902 
    6900    298.34057   -1140.6344    218.09886    418.52368    504.11188    37625.902 
    7000    293.71731   -1150.9986    214.39333    383.67208    154.54796    37625.902 
    7100    303.49249   -1168.0021    205.61262    401.82795    297.66383    37625.902 
    7200    304.23237   -1167.2632    205.34241    405.62245    320.92855    37625.902 
    7300    299.87252   -1178.9986    203.84317    372.79002    204.55927    37625.902 
    7400    295.39198   -1164.9991    215.02966    377.83569     233.7628    37625.902 
    7500    302.94245   -1152.7339    220.07406    429.08509     344.3166    37625.902 
    7600    299.61135   -1162.4019    212.53054    396.90013    732.70394    37625.902 
    7700    307.11402   -1130.7178    222.89461    472.67318    947.09284    37625.902 
    7800    295.53879   -1137.7692    221.08464    411.78046    330.45278    37625.902 
    7900    303.60452    -1166.391    231.90463    430.23469    663.60892    37625.902 
    8000    306.98842    -1178.087     231.9994    433.84425    719.45653    37625.902 
    8100    306.91452   -1181.1324     218.0016    416.46887    256.43685    37625.902 
    8200    299.45285   -1137.7645    238.05644    446.35091    654.32461    37625.902 
    8300    286.23987   -1133.0702    232.09815    385.69382    450.16196    37625.902 
    8400    295.49451   -1176.8556    235.57985    386.99021    310.65518    37625.902 
    8500    301.18397   -1187.5153    216.47738    382.80256    469.37096    37625.902 
    8600    302.64586   -1153.4813    229.46394     436.3944     349.8731    37625.902 
    8700    311.12242   -1191.2114    236.06491    443.36795    970.56642    37625.902 
    8800    295.29974   -1171.3739    236.54858     392.5652    1108.5151    37625.902 
    8900    308.35608   -1155.2555    238.55179    469.37591    547.88503    37625.902 
    9000    307.76876   -1175.6973    247.56042    455.30263    714.07076    37625.902 
    9100    298.72404   -1189.2076    223.27177    376.84707    428.46224    37625.902 
    9200    296.48559   -1155.5589    255.15481    432.31686    322.52955    37625.902 
    9300    296.22724   -1178.9519    230.82386    383.43166     533.4455    37625.902 
    9400    292.40352    -1186.203    224.46952    352.63838    36.081542    37625.902 
    9500    294.65306    -1138.764     247.6794    433.39908    220.42912    37625.902 
    9600    301.98396   -1158.3833    254.34288    453.39606    709.32564    37625.902 
    9700    300.22381   -1144.3805    232.69481    437.83881    273.68744    37625.902 
    9800    301.91142   -1172.5547      232.319    416.87478    110.34067    37625.902 
    9900    309.13022   -1139.7989    253.32722    503.08772    599.05964    37625.902 
   10000    294.04032   -1162.7585    235.12671    394.09754    222.10198    37625.902 
   10100    292.42472   -1144.9863    251.48257    420.96334    354.60803    37625.902 
   10200    292.27569   -1149.9371    242.63509    406.49523    723.66952    37625.902 
   10300    292.32903   -1179.1739    247.43956    382.30262    955.40113    37625.902 
   10400    297.14262   -1184.8165    251.39959    402.25748    867.67322    37625.902 
   10500    298.30595   -1159.1917    254.94075    436.65264     420.1807    37625.902 
   10600    307.98756   -1164.6731    255.90684    475.65678    471.96395    37625.902 
   10700    306.80886   -1182.9685    263.71527    459.87144    600.12894    37625.902 
   10800     291.2957   -1119.9062    257.01861    446.50448    170.99544    37625.902 
   10900    301.83306    -1163.904    255.64047    448.49464     421.4142    37625.902 
   11000    305.86938   -1162.7278    261.18687    473.36078     658.8189    37625.902 
   11100    295.41595   -1157.2949    255.30279    425.92078    432.26749    37625.902 
   11200    307.45262   -1140.7031    269.73165      511.047    340.59903    37625.902 
   11300     300.1312    -1115.664    251.16602     484.6102    129.58686    37625.902 
   11400    309.57562   -1151.8299    249.84439    489.57599    353.79502    37625.902 
   11500    294.29443    -1159.332    260.22601    423.76565    77.175824    37625.902 
   11600    296.20668   -1163.0469    277.01004    445.43039   -123.81498    37625.902 
   11700    292.41256   -1160.7193    272.13585    425.82901    251.19595    37625.902 
   11800    302.12896   -1188.0904    255.25327    425.25117    134.64696    37625.902 
   11900    298.95326   -1141.1722    283.03362    485.67479    436.62195    37625.902 
   12000    303.51345   -1181.0067    258.87678    442.18167    630.88368    37625.902 
   12100    305.25408   -1168.6048    273.53429    477.06533     950.9464    37625.902 
   12200    296.20778   -1155.9085    279.20462    454.76837    633.53238    37625.902 
   12300    300.50262   -1156.6397    261.11587    455.25392    1089.7192    37625.902 
   12400    305.71522   -1179.1099      284.849    479.94781     1192.323    37625.902 
   12500    306.26889   -1162.2083    271.67146    486.16065    422.86756    37625.902 
   12600    301.06341   -1128.3674    272.39405    497.32525    301.86564    37625.902 
   12700    296.84029    -1138.034    284.24735    480.52874    292.85418    37625.902 
   12800    299.33375   -1159.2054    260.42305    446.74123     223.7483    37625.902 
   12900    300.95577   -1160.9749    276.08469    467.92451    608.74338    37625.902 
   13000    297.43557   -1202.1856     279.0293    413.83482     100.7314    37625.902 
   13100    299.12057    -1171.071    260.41689    433.91125    630.84045    37625.902 
   13200    303.58898   -1143.1468    290.99627     512.5006    270.94067    37625.902 
   13300    297.53497   -1140.1665     288.8272    486.09867     176.3418    37625.902 
   13400    297.22978   -1183.2468    269.91676    422.73613    75.427922    37625.902 
   13500    297.87667   -1184.5564    281.17706    435.59458    191.10829    37625.902 
   13600    297.80977   -1193.2942    278.94936     424.3284    555.62801    37625.902 
   13700    305.26159   -1195.4135    285.51332    462.26948    641.92031    37625.902 
   13800    302.05511   -1215.1347    276.37465    418.99624    394.74375    37625.902 
   13900    300.90166   -1198.7237    279.75691    433.60464     740.7436    37625.902 
   14000     306.6254   -1219.8632     292.4996     450.9364    384.24589    37625.902 
   14100    295.79626   -1227.9216    273.51159    375.21237   -21.056916    37625.902 
   14200    308.32213   -1185.1973    282.61169    483.34137    134.34017    37625.902 
   14300    312.01967   -1197.5412    283.89247    488.89894    175.40832    37625.902 
   14400    303.08714   -1175.4391    271.30239    458.25869    150.53434    37625.902 
   14500    302.08711   -1187.2631    269.51381     440.1509    29.065902    37625.902 
   14600     290.3016   -1206.8428    282.23139    380.31217   -67.298377    37625.902 
   14700    301.71146   -1222.9024    281.77034    415.07952   -179.47546    37625.902 
   14800    303.36833   -1209.5305    291.34258    445.47135    341.69393    37625.902 
   14900    290.07324   -1199.1121    289.90083    394.68578   -150.78739    37625.902 
   15000     305.0256    -1197.418    278.43061     452.1215    234.07526    37625.902 
   15100    299.26192   -1240.5869    283.34273    387.95656    427.79766    37625.902 
   15200    294.73181   -1242.1341    306.31829    389.02181    377.82171    37625.902 
   15300    302.26514   -1224.7771    272.12489    406.04817    494.46944    37625.902 
   15400    306.49973   -1213.6751    301.97393    466.03403    321.57244    37625.902 
   15500    297.30916   -1218.6548    283.17271    400.94083    186.40792    37625.902 
   15600    306.26131   -1229.0085    310.26201    457.91695   -141.21173    37625.902 
   15700    296.84457    -1185.056    308.07719     457.3558    340.64351    37625.902 
   15800    300.30512   -1245.3627    284.16289    388.69017    222.17628    37625.902 
   15900    294.45088   -1242.3896    285.01089    366.19612    279.18481    37625.902 
   16000    293.08812    -1245.206    298.12717    370.37033    369.78044    37625.902 
   16100    294.76072    -1218.241    303.40818    410.13477     742.8349    37625.902 
   16200    303.47799   -1182.7286    317.08005    498.50366    549.21337    37625.902 
   16300    302.52596   -1179.9586    287.17751    467.09174    397.56552    37625.902 
   16400    299.62053   -1189.1473    279.69316    437.35859   -63.117526    37625.902 
   16500    298.86894   -1159.4931    310.61824    494.55939    243.85803    37625.902 
   16600     296.6957   -1200.3719    298.28805    431.58162   -36.593083    37625.902 
   16700    308.69268   -1198.4725    307.15253    496.27262    127.18855    37625.902 
   16800    303.81157   -1219.0122    313.13119    459.77073   -184.43038    37625.902 
   16900    307.16183   -1231.8213    308.51133    457.40141   -185.95437    37625.902 
   17000    298.59287   -1237.4005    294.13558    398.92842    315.36404    37625.902 
   17100    293.53368   -1227.9203    320.86247    412.39417     62.76039    37625.902 
   17200     304.1214     -1219.59    293.99455    441.44895   -526.99086    37625.902 
   17300    306.25922   -1211.6696    300.62827    465.61266   -52.344567    37625.902 
   17400    308.65799   -1226.3767    301.28063    462.34063   -86.304249    37625.902 
   17500    314.76883   -1205.6283    297.59549    506.87241    124.99208    37625.902 
   17600    304.42544   -1213.2473    303.96639     459.1302    355.85758    37625.902 
   17700    304.90231   -1169.4086     312.5766    513.72261    546.72066    37625.902 
   17800    300.48134   -1216.0266    307.96153    442.61709    436.39261    37625.902 
   17900    295.94015   -1214.9985    291.29915    406.56989    473.53477    37625.902 
   18000    290.48711   -1214.8353    315.36383    406.28597    169.67552    37625.902 
   18100     306.4114   -1194.2333    312.66829    495.77306   -30.499001    37625.902 
   18200     301.2054   -1236.0309    296.17676    414.08263   -138.93246    37625.902 
   18300    302.68027   -1212.7332    298.18126    446.01454    106.08056    37625.902 
   18400    302.95694   -1214.1327    316.53791    464.21527   -145.62868    37625.902 
   18500    286.25069   -1219.1757    315.61096    383.14974   -88.642582    37625.902 
   18600    300.10207   -1168.3375    313.54662    494.18642    20.979486    37625.902 
   18700    293.25193   -1199.1138    327.97242    447.04407   -477.18019    37625.902 
   18800    296.32081   -1238.3093    297.97962     391.6506   -258.42189    37625.902 
   18900    295.00395   -1276.0442    302.00481    352.02156   -189.76894    37625.902 
   19000    301.14325    -1223.675    323.11923    453.10163   -265.89962    37625.902 
   19100    296.84682   -1225.7803    319.10459    427.66902   -28.863534    37625.902 
   19200    291.01726      -1197.4    315.20838    425.94888    21.620561    37625.902 
   19300    305.49907   -1259.8644    309.40809    422.78082    -180.0305    37625.902 
   19400    288.42071   -1224.3157    321.70979    393.86293   -97.442085    37625.902 
   19500    298.80913    -1233.952    332.25825    441.47168    373.19804    37625.902 
   19600     303.6356   -1252.4765    322.63266    435.01691    389.91178    37625.902 
   19700    315.57965   -1231.8053    321.75032    508.49497    1139.1037    37625.902 
   19800    301.86321   -1198.1399    330.25986    489.01366    469.60976    37625.902 
   19900    287.91993   -1266.3899    324.10988    351.93784    121.84334    37625.902 
   20000    294.23524   -1267.9958    325.87711    380.48685    134.70608    37625.902 
   20100    309.84504    -1219.275    306.29841    479.79595    660.19542    37625.902 
   20200    309.82708   -1239.1833    324.33654    477.84501    268.88225    37625.902 
   20300    298.35596   -1193.8285    321.59428    468.89419     446.8295    37625.902 
   20400    291.47834   -1225.2313    327.19495    412.17673    75.401527    37625.902 
   20500    301.86077   -1227.3841    329.12261    458.62129    333.58418    37625.902 
   20600    303.08829   -1236.6248    297.97909    423.75482    628.99998    37625.902 
   20700    296.88585   -1202.1631    313.09319    445.45024    205.19824    37625.902 
   20800     295.7953   -1222.8735    349.41338    456.15793    7.9186831    37625.902 
   20900    290.42571   -1212.2925    299.31532    392.50431     120.9188    37625.902 
   21000    303.64617   -1246.7932    313.53513     431.6502     210.9022    37625.902 
   21100    303.15036   -1239.5558     353.5157     476.6394   -212.95082    37625.902 
   21200    303.99711   -1254.7004     313.4091    425.19446   -90.452141    37625.902 
   21300    297.63599   -1261.4052    336.27631    412.76322   -384.45887    37625.902 
   21400    298.97606   -1273.3223    334.70105    405.29457    344.17063    37625.902 
   21500    300.46134   -1215.5491    311.19825    446.24136   -558.11606    37625.902 
   21600     300.5247   -1233.3737    335.24328    452.74662   -158.20908    37625.902 
   21700    296.17065   -1231.1973    331.90816     432.0162    391.23178    37625.902 
   21800    305.41442    -1241.914     331.4541    462.39669    563.30375    37625.902 
   21900    301.97152   -1236.5901    312.05683    432.84734     401.2205    37625.902 
   22000    302.49768   -1221.3115    330.94617    469.38033    561.95175    37625.902 
   22100    299.48794   -1247.0677    343.44551    442.59454    600.56339    37625.902 
   22200    301.44588   -1258.7719     335.3008    431.54671    687.55879    37625.902 
   22300    296.43713   -1268.9178    320.14379     383.7291    366.18078    37625.902 
   22400    306.71003   -1227.3311    319.18488     470.5342    655.48459    37625.902 
   22500    302.65266   -1250.1146    350.18399    460.51171    395.78841    37625.902 
   22600    301.88751   -1274.1075    329.47798     412.3734    307.84172    37625.902 
   22700     291.6644   -1284.4323     329.8289    356.44601   -81.268687    37625.902 
   22800    312.49187   -1286.1026    322.61526    441.18284    468.27708    37625.902 
   22900    311.06193   -1289.4287    322.26362    431.07741    355.81995    37625.902 
   23000    297.94047   -1255.6683    328.26559    411.85803      243.438    37625.902 
   23100    309.46916   -1223.1542    334.06533    501.99402    382.93136    37625.902 
   23200    297.23201   -1223.9851    354.47933     466.5704    40.831681    37625.902 
   23300    295.03649   -1217.8477    332.06711    440.42662    168.24192    37625.902 
   23400    304.62509   -1216.8337    338.74022    491.21503    233.19992    37625.902 
   23500    303.93123   -1243.8745    354.23339     476.5485   -7.1949988    37625.902 
   23600     302.7707   -1219.2327    349.93402    491.67424    470.06659    37625.902 
   23700    292.36719   -1228.3021    331.49179    417.39824   -40.829801    37625.902 
   23800    308.63603   -1228.4246    346.41021    505.32354    377.86511    37625.902 
   23900    299.07506   -1236.1225    347.88657    456.12487     125.3016    37625.902 
   24000    295.44433   -1212.5132    370.80041    486.32764    506.51389    37625.902 
   24100    292.73935   -1232.9187    333.79311    416.75584    268.15666    37625.902 
   24200    299.03402   -1237.0309    360.68799    467.83337    519.88488    37625.902 
   24300    300.99331   -1236.7941     355.7066    471.89595    396.49329    37625.902 
   24400     303.9054   -1259.7889    351.66975     457.9543    615.30514    37625.902 
   24500    300.23538   -1240.0522    358.19205    467.71641     368.2053    37625.902 
   24600    311.09789   -1246.1339    343.50218    495.77251    104.81865    37625.902 
   24700     298.8084   -1229.2838    339.17669    453.05501    89.132633    37625.902 
   24800    292.81558   -1254.0663    353.35397    415.51174   -362.57552    37625.902 
   24900    302.23988   -1240.4829    352.95166    471.05569   -312.77254    37625.902 
   25000    302.72851   -1286.4397    337.21673    411.56035   -510.78959    37625.902 
   25100     296.8573   -1260.6248    340.45416     414.2212   -425.14802    37625.902 
   25200    300.11494   -1255.2668    339.62132    433.38962    47.507123    37625.902 
   25300    298.49437   -1255.2086    339.53733    426.07932   -503.11133    37625.902 
   25400    301.00171   -1257.0711     347.1624    443.11254   -692.66832    37625.902 
   25500     305.1025   -1287.5448    358.60878    442.51844   -602.35254    37625.902 
   25600      300.901   -1239.7774    346.65537    459.44643   -164.20622    37625.902 
   25700    297.27586   -1259.9937    347.70162    423.98122   -156.29103    37625.902 
   25800     298.4619    -1293.791    340.43166    388.24529    57.099869    37625.902 
   25900    300.41829   -1320.6561     362.6236    392.36618    267.74663    37625.902 
   26000    295.97903   -1327.3999    342.44507    345.48915    82.915078    37625.902 
   26100    295.08645   -1297.9804    343.75262    372.20403    456.95953    37625.902 
   26200    306.42983   -1322.5086    346.48835    401.40063    487.05697    37625.902 
   26300    298.14367   -1261.9403    356.00001    434.23387    350.37619    37625.902 
   26400     292.6307   -1283.3105     360.5197    392.60223    764.90592    37625.902 
   26500    303.03304   -1290.5532    358.97226     430.5712     158.1778    37625.902 
   26600    302.95558   -1296.9152     360.0249    424.91371     340.3487    37625.902 
   26700    297.28294   -1275.5997    358.89643    419.60178    397.85974    37625.902 
   26800    290.26605   -1285.9604    361.61719    380.42055    136.74337    37625.902 
   26900     304.3964   -1243.1497    380.59138    505.72223    694.87145    37625.902 
   27000    293.34994   -1268.5572    364.50537    414.57425   -76.721644    37625.902 
   27100     297.0836   -1258.8152    370.41071    447.00452    18.587758    37625.902 
   27200    288.41776   -1279.3649    365.55466    382.64539   -145.27104    37625.902 
   27300    304.11676   -1291.3416    374.80167     450.4836    469.03207    37625.902 
   27400    301.68797   -1272.5726    352.07527    435.60867    591.82919    37625.902 
   27500    291.23114   -1310.9041     369.1642    367.36204    638.82771    37625.902 
   27600    300.35033   -1278.1341    346.10982    418.06895   -94.428069    37625.902 
   27700    293.88592   -1304.4063    358.40129    375.03031   -360.77536    37625.902 
   27800    299.45553   -1297.4856    359.56285    408.14826    614.51477    37625.902 
   27900    307.91686   -1318.8999     358.2264    423.43171    179.90773    37625.902 
   28000    308.62181   -1272.7258    355.61193    470.16014   -362.46285    37625.902 
   28100    295.67102   -1250.8762    362.48924    440.67245    40.575328    37625.902 
   28200    300.81603   -1218.8714    380.32263    513.63783    90.171314    37625.902 
   28300    292.12715   -1238.4942    369.54878    444.18412    284.75348    37625.902 
   28400    293.20787   -1278.5085    355.74797    395.22694    339.41231    37625.902 
   28500    301.69108   -1293.3953    364.00388    426.72849    403.25382    37625.902 
   28600    297.85998    -1238.817    379.71169    479.79369    8.9766862    37625.902 
   28700    293.86228   -1279.4982    366.93751    408.36831   -491.90966    37625.902 
   28800    295.49169   -1201.0138    387.09492     514.3344   -45.076078    37625.902 
   28900    300.99659   -1220.1616    358.24077    491.07736    -665.0543    37625.902 
   29000    304.54233   -1293.9235    368.46585    443.47892    211.09761    37625.902 
   29100    295.07057   -1276.7403    367.79081    417.41092    94.270555    37625.902 
   29200    297.27926   -1255.6363    370.05391    450.70621    170.01621    37625.902 
   29300    300.96057    -1259.389    355.56024    449.00751    543.89525    37625.902 
   29400    300.81486   -1231.1764    388.57065     509.5756    356.73923    37625.902 
   29500    305.00034   -1225.6498    373.13771    518.48325    1.3047304    37625.902 
   29600    296.26084   -1204.3714    378.06043    505.39973   -176.84013    37625.902 
   29700    306.05366   -1273.9311    352.93898    454.73791   -344.12866    37625.902 
   29800    298.48602   -1254.1253    356.63715    444.22491    207.83095    37625.902 
   29900    306.15604   -1258.3759    358.79346    476.60783    3.2441498    37625.902 
   30000     287.6419   -1261.3676    366.22101    397.82144    54.401573    37625.902 
   30100    307.67139   -1285.0154    376.37375    474.36017    67.059704    37625.902 
   30200    306.17546   -1270.3321    366.06778    472.01316    309.58167    37625.902 
   30300    306.62043   -1298.6541    358.29367    437.91729    201.52845    37625.902 
   30400     294.0247   -1287.4007    345.92288    380.18128    289.09109    37625.902 
   30500    306.17324   -1285.2889    366.34565     457.3243    361.02746    37625.902 
   30600    305.86906   -1299.0615    355.24214    431.08094    561.00823    37625.902 
   30700    301.21473   -1317.8801     349.6168     385.7155    82.367122    37625.902 
   30800    301.06776   -1262.8176    359.62563    450.12617   -39.525933    37625.902 
   30900    306.56004   -1252.0003    383.69059    509.69654      231.809    37625.902 
   31000    301.02627    -1274.106    362.99565    442.02122    260.49202    37625.902 
   31100    298.19269   -1294.9078    382.19728    427.68394    683.47315    37625.902 
   31200    294.91795   -1329.3628    371.56401    367.87552    360.13339    37625.902 
   31300    295.77396   -1316.9601    374.24601    386.80812    532.09249    37625.902 
   31400    307.65055    -1304.295    357.81332    436.42649    666.45515    37625.902 
   31500    301.62483   -1340.4219    377.28832    392.68862    811.68555    37625.902 
   31600    301.91387   -1313.6174    367.77098    411.27498    232.68449    37625.902 
   31700    296.94585   -1296.2711     348.4707     386.9895    -91.29105    37625.902 
   31800    302.58753   -1334.9148    339.49711     364.7319   -144.48757    37625.902 
   31900    300.62385    -1315.495    361.85932    397.68709   -185.78003    37625.902 
   32000    306.13414   -1392.1853    352.07777    335.98425   -157.57853    37625.902 
   32100    298.18695   -1328.4072    359.10168    371.06319   -277.39767    37625.902 
   32200    293.78676   -1319.5849    362.87724    363.88193   -121.51039    37625.902 
   32300    301.67866   -1283.3605    373.14296    445.84658    398.22237    37625.902 
   32400    301.78979   -1313.3641    380.64859    423.84818    629.92331    37625.902 
   32500    298.79079   -1310.3288    387.28459    420.03878    987.72937    37625.902 
   32600    300.96702   -1304.3625    354.91464    403.41742    656.40598    37625.902 
   32700    299.17327   -1311.6409    348.20576    381.36713    543.90832    37625.902 
   32800    302.09025   -1267.5309    384.69295    475.07628    315.08333    37625.902 
   32900    307.05484   -1302.6611    366.10623    443.67555   -55.437846    37625.902 
   33000    305.32259   -1304.2044    363.07913    431.31859    368.51921    37625.902 
   33100    291.73247   -1310.5846      353.965    354.73584    351.73027    37625.902 
   33200    310.29273   -1351.2961    378.98893    422.47774   -85.550354    37625.902 
   33300    300.65803   -1308.5971    365.36046    408.23967   -342.20421    37625.902 
   33400    296.78649   -1323.5893    362.15869    372.64299   -6.5877844    37625.902 
   33500    297.19984   -1308.9211    364.93013    391.94061    423.34547    37625.902 
   33600    298.65016   -1302.7685    383.79798    423.48033    447.63021    37625.902 
   33700    306.82099   -1304.4813    402.47561    477.17358    302.38433    37625.902 
   33800    300.48293    -1296.239    379.36861    433.81885     526.2835    37625.902 
   33900    288.80717   -1307.1689    417.01824     408.0553   -140.53631    37625.902 
   34000    305.88719   -1293.4399    383.96453    465.50643    219.95686    37625.902 
   34100    295.39261   -1306.6447    380.29133    401.45464    391.45209    37625.902 
   34200    300.23191    -1336.469    411.28668    424.37861    927.09939    37625.902 
   34300    298.78002   -1346.8038    380.60008     376.8309    872.71962    37625.902 
   34400    296.59471   -1356.9811    374.54187    350.77227     858.5457    37625.902 
   34500    302.23057   -1348.0464    384.85746    395.35613    842.18266    37625.902 
   34600    304.47497   -1351.4561    378.90407    396.08163    713.00019    37625.902 
   34700    302.31826   -1319.6945    388.43813    427.68287     783.7804    37625.902 
   34800    305.60978   -1311.2177    385.10879    447.62591    570.47976    37625.902 
   34900    304.84472   -1301.8757      364.956    433.37606    167.03501    37625.902 
   35000    302.37258    -1319.123    377.21101    417.27138    164.05551    37625.902 
   35100    301.50512   -1273.4385    396.91062     478.7562   -33.183549    37625.902 
   35200    298.16773   -1302.7853    371.42038    408.91739   -210.56408    37625.902 
   35300    303.11755   -1273.3267    415.30244    504.50778    -58.28213    37625.902 
   35400    291.18349   -1255.5652     384.0566    437.37912   -497.32494    37625.902 
   35500    297.62822   -1262.9577    376.00136    450.90084    168.24936    37625.902 
   35600    296.78468   -1239.0745    366.25162    461.24253    136.14344    37625.902 
   35700    304.75081   -1301.6574     368.5117    436.72791    314.92367    37625.902 
   35800    302.98583   -1282.6581    405.27196     484.5538   -247.40766    37625.902 
   35900    304.08617   -1302.0412    377.38594    442.23077    197.91645    37625.902 
   36000    299.37222   -1302.4455    394.78893    438.04001    68.260139    37625.902 
   36100    300.31864     -1287.79    375.87752    438.03828    248.78559    37625.902 
   36200     306.0293   -1293.7403    388.57188    470.45215    421.92116    37625.902 
   36300    302.78681   -1307.5133    375.78703    429.31907    11.277486    37625.902 
   36400     305.2014   -1270.4708    381.51749    482.94581    218.30197    37625.902 
   36500    295.95305   -1317.0707    367.57599    380.83246   -91.647156    37625.902 
   36600    297.94772   -1327.9395    376.53311    387.88701     328.0616    37625.902 
   36700    299.12738   -1325.9237    378.64629    397.31858     380.1016    37625.902 
   36800    298.84534   -1312.4447    384.30496    415.18848    465.79909    37625.902 
   36900    304.07534    -1334.587    379.80959    412.05994    49.838988    37625.902 
   37000    308.49738   -1312.6468    383.92982    457.99771    297.38539    37625.902 
   37100     297.6979   -1338.6908    383.31648    382.79609    629.41113    37625.902 
   37200    298.23206   -1349.3537    386.86675    378.08454    426.56874    37625.902 
   37300    302.20406   -1341.6732    402.69078     419.4434    315.26215    37625.902 
   37400    302.52442    -1342.522    370.69194     388.0358    403.31238    37625.902 
   37500      305.732   -1311.9973    395.26707    457.55395    296.06573    37625.902 
   37600    298.74253   -1356.8461    391.31396    377.33395   -194.05264    37625.902 
   37700    286.01322   -1332.7432    378.45054    331.35438   -151.10524    37625.902 
   37800    303.57177   -1329.7417    361.44256    396.27466    227.66146    37625.902 
   37900    307.26446   -1357.3995     382.8153    406.58847   -282.40266    37625.902 
   38000    294.79355     -1346.59    372.02652     350.5517   -82.202379    37625.902 
   38100    298.91316   -1379.6463    379.64015    343.62689    161.83744    37625.902 
   38200    293.16206   -1408.6501    392.88539    302.01684    494.11896    37625.902 
   38300    305.31032   -1416.1726    372.30776    328.52383    1038.5601    37625.902 
   38400    300.41751   -1415.9205    385.35682    319.83151    594.66974    37625.902 
   38500    310.14109   -1387.4665    363.35452    369.99128    358.46323    37625.902 
   38600    298.15258   -1380.0671    391.32496    351.47206    220.34062    37625.902 
   38700    304.29368   -1323.2593    394.55088    439.11037   -190.38379    37625.902 
   38800    303.90972   -1341.5716    381.84574    406.36709   -294.55028    37625.902 
   38900    298.69848   -1355.3879     398.6158    385.89601   -383.99632    37625.902 
   39000    299.67224   -1321.1944    389.22014     415.0709   -417.90222    37625.902 
   39100    292.79402    -1316.138    420.38671    420.37581   -394.13048    37625.902 
   39200    297.98907   -1342.1464     404.0804    401.41317     587.1861    37625.902 
   39300    293.57564   -1350.5813    407.12263    376.18195     319.3341    37625.902 
   39400    290.88761   -1366.8185    378.89396     319.6332    177.15338    37625.902 
   39500     300.0266    -1334.095    377.01796      391.561    470.45662    37625.902 
   39600    297.49696   -1336.9844    380.40713    380.68986    531.71495    37625.902 
   39700    298.67897   -1323.0248    394.28118    413.83673    987.00365    37625.902 
   39800    299.49192   -1266.3521    407.47823    487.36072    607.54309    37625.902 
   39900    294.13537   -1306.6163     421.8694    437.40965   -5.2133422    37625.902 
   40000      303.999   -1321.8853    396.82023    441.42919    27.755654    37625.902 
   40100    307.90659   -1320.3731    395.45754    459.14348    457.92687    37625.902 
   40200    296.76944    -1339.118    415.09395    409.97284    75.367381    37625.902 
   40300    302.55401   -1314.9917    394.69695    439.70409   -92.878114    37625.902 
   40400    297.28189   -1300.7408     405.4772    441.03681   -166.32584    37625.902 
   40500    291.15239   -1321.6554    392.74454    379.83705   -70.060372    37625.902 
   40600    297.68776   -1348.8614     379.0564    368.31985    36.024384    37625.902 
   40700    297.43725   -1321.0779    397.44253    413.36344   -320.52278    37625.902 
   40800    293.09119   -1297.7966    400.80132    420.46764   -57.053908    37625.902 
   40900    294.91044   -1298.6171    426.11241    453.13594    361.72953    37625.902 
   41000    302.24064   -1341.1888    399.38292    416.78437    401.92572    37625.902 
   41100    310.02427   -1322.3424    400.24182    471.47761    291.72977    37625.902 
   41200    290.90976   -1324.0292    390.73557    374.36365    124.37349    37625.902 
   41300    297.25326   -1313.9275    391.50478    413.74893   -54.610438    37625.902 
   41400     309.4268   -1342.9091    379.43453    427.41799    149.19176    37625.902 
   41500    297.07468     -1329.22    400.34307    406.49208   -20.347284    37625.902 
   41600    313.20908   -1303.4997    390.68216    495.07658   -128.96115    37625.902 
   41700    298.93945   -1326.9639    397.85514    414.64244    499.39521    37625.902 
   41800    295.97103   -1347.9397    422.46886    404.93713     470.5081    37625.902 
   41900    310.68584   -1391.4624    395.98215    401.07173    827.03274    37625.902 
   42000    294.02516    -1334.435    398.37111    385.59734    746.36054    37625.902 
   42100    305.70408   -1322.2329    388.68466    440.61046    948.63522    37625.902 
   42200    306.37718   -1339.5718    403.47799    441.09051    732.13844    37625.902 
   42300     304.4754   -1332.8866    393.71516    429.46426    545.75814    37625.902 
   42400    290.22787   -1325.9334    396.88159    375.54032    457.88927    37625.902 
   42500    311.26148   -1331.3193    411.58032    479.40052    319.62328    37625.902 
   42600    293.18807   -1327.1481    409.86687    400.61723    595.18073    37625.902 
   42700    289.09074   -1344.4725    376.45853    331.46672    357.86014    37625.902 
   42800    313.84371   -1334.4026    404.67275    481.01696    694.81013    37625.902 
   42900    297.87842   -1389.6095    374.59893     323.9713    278.36225    37625.902 
   43000    312.88495   -1340.1431    406.62037    472.91441    125.81384    37625.902 
   43100    295.96913   -1335.8219    391.21498    385.79257    411.82797    37625.902 
   43200    291.68502   -1359.7082    366.66235    318.09625    126.90054    37625.902 
   43300    301.96654   -1355.2982    422.22798    424.28803   -52.323187    37625.902 
   43400    306.92741    -1329.039    401.30007    451.91862   -6.9325055    37625.902 
   43500    306.36703   -1389.9816    398.29656    385.45359    38.364629    37625.902 
   43600    302.17661   -1391.9774    419.36932    385.69444   -32.624248    37625.902 
   43700    291.26592    -1355.686    392.80479    346.37707    136.28253    37625.902 
   43800    299.60417   -1349.1453    396.47173     394.0656    184.51699    37625.902 
   43900    296.68613   -1349.8598     393.6152    377.37778   -523.76672    37625.902 
   44000    311.70456    -1377.748    381.86528    405.24852   -125.31849    37625.902 
   44100    296.65435   -1313.8646    386.57893    406.19389   -95.906406    37625.902 
   44200    315.53781   -1381.0576    396.29193    433.59621   -167.74025    37625.902 
   44300    288.76289   -1361.7914    393.12795    329.34351    17.180772    37625.902 
   44400    297.75858   -1371.7267    407.46821    374.18469   -58.543869    37625.902 
   44500    315.09368   -1338.5774    402.47223    480.26031   -96.592357    37625.902 
   44600    303.91933   -1357.1366    408.52299    417.52253   -173.52623    37625.902 
   44700    295.04915   -1344.2399    404.51799    386.54213   -4.1010401    37625.902 
   44800    300.70965   -1306.0737    406.78307     452.4178    192.51209    37625.902 
   44900    310.04891   -1317.4949    388.70663    464.90067    152.92417    37625.902 
   45000    303.40603   -1320.0948    400.85608    444.59004    553.99922    37625.902 
   45100    306.64624   -1273.6349    402.11476    506.87356    489.59742    37625.902 
   45200    300.23518   -1342.3256    404.73201    411.98204    1.2285821    37625.902 
   45300    300.77613   -1344.1701    398.47393    406.31106    35.552033    37625.902 
   45400    305.69193    -1301.742    399.61544    471.97748    441.95403    37625.902 
   45500    304.93809     -1280.82    422.82028    512.71578    371.74283    37625.902 
   45600    295.03969   -1285.2679    422.94135    463.89502   -412.06496    37625.902 
   45700    308.14604   -1277.1831    416.00949    523.96179   -225.37048    37625.902 
   45800      297.393   -1338.3491    411.24462     409.6953   -168.43287    37625.902 
   45900    303.42633   -1318.0486    401.75983     447.6313    9.3102731    37625.902 
   46000    304.15827   -1287.9197    412.54678    491.83725    263.87203    37625.902 
   46100    298.78298   -1293.5679    408.58189    458.06191    326.52694    37625.902 
   46200     305.0055   -1327.0199      396.186    440.18463    467.46999    37625.902 
   46300    290.56954   -1372.5701    389.79599    323.35385     699.5222    37625.902 
   46400    309.86043   -1340.8979    404.32617    456.26993    798.16376    37625.902 
   46500    300.63123   -1292.9577    395.98528    454.38347    597.71059    37625.902 
   46600    301.78181   -1315.7011    418.18226    459.00903    34.267894    37625.902 
   46700    291.98437   -1301.2264    398.82345    410.08475    271.60168    37625.902 
   46800    296.62082   -1351.9625     397.2941     378.6605    226.17193    37625.902 
   46900    301.50322   -1336.8937    411.48893    429.87073   -559.17327    37625.902 
   47000     307.5634   -1385.5867    378.13516    375.06484    344.44901    37625.902 
   47100    304.15581   -1316.5497    401.59127    452.24067    345.59504    37625.902 
   47200    297.74663   -1307.4463    405.65675    436.59987   -221.30671    37625.902 
   47300    296.13876   -1311.6751    414.51937    434.00624     43.36297    37625.902 
   47400    297.09467     -1368.99    404.14927    370.61813    -383.4514    37625.902 
   47500    295.42781     -1372.14    415.77199    371.59816   -487.74208    37625.902 
   47600    305.15786   -1330.6534    408.12133    449.17122    -685.8487    37625.902 
   47700    296.73142   -1375.8371    396.32786    354.31676   -940.24232    37625.902 
   47800    303.38257   -1347.8679    401.48817    417.34363   -462.24234    37625.902 
   47900    295.06196    -1339.331    388.46532      375.456   -440.20369    37625.902 
   48000    292.21092    -1334.322    383.14007    362.32418   -272.01542    37625.902 
   48100    304.98459   -1348.8593    392.09675    414.16198    693.36164    37625.902 
   48200    295.48077   -1327.5936    425.68569    426.29635    588.86694    37625.902 
   48300    295.25483   -1352.7746    396.02665    370.44072    571.19588    37625.902 
   48400    300.04435   -1399.5606     404.9391    354.09631    419.00153    37625.902 
   48500    298.12244   -1373.5083    400.38173    366.95212   -37.464804    37625.902 
   48600    295.81549   -1379.3103    406.36678    356.76538   -214.65973    37625.902 
   48700    288.14113   -1409.6163    417.40689    303.00274   -57.631644    37625.902 
   48800    309.68209   -1409.5902    418.10225    400.55213    222.09014    37625.902 
   48900    305.45227   -1331.8889    420.29827    461.43609    91.200478    37625.902 
   49000    298.26034   -1335.2612    399.79602     405.2334    524.70502    37625.902 
   49100    300.83952   -1339.1755    411.68955    424.80617    224.10514    37625.902 
   49200     293.3724   -1363.1677    407.27613    362.83546    497.58882    37625.902 
   49300    295.31365   -1362.9036    426.24947    390.79892     193.0053    37625.902 
   49400    312.68132   -1348.3054    403.02953    460.24592    866.43229    37625.902 
   49500    289.12813   -1358.2308    422.29219    363.71014     84.15671    37625.902 
   49600    300.45188   -1327.9906    423.05118    445.61023    173.93862    37625.902 
   49700    299.80033   -1331.6607    418.59544    434.55564   -73.427446    37625.902 
   49800    302.37617   -1365.9041    415.47546     408.7709    381.49225    37625.902 
   49900    307.67902   -1376.4869    425.31749    431.86669    376.44618    37625.902 
   50000    300.60355    -1349.108    410.52656    412.64999    270.74744    37625.902 
   50100    304.21864   -1365.8896    407.95613    409.54809    73.699844    37625.902 
   50200    305.52394   -1378.7869    432.35418    426.91619    247.74877    37625.902 
   50300    302.88987   -1375.9894    435.44648    420.96569    239.30159    37625.902 
   50400    297.78901   -1378.4315    411.87012    372.01858   -82.495007    37625.902 
   50500    305.82538   -1366.8867    423.16061    430.97777   -460.86286    37625.902 
   50600    291.00965   -1310.2764    410.51419    408.34412   -397.71694    37625.902 
   50700    296.13335   -1306.8762    413.25847    437.51984    -140.8599    37625.902 
   50800     308.6936   -1351.0577     401.1004    437.63948    40.195686    37625.902 
   50900    296.63957   -1341.4842    445.55045    437.47937   -156.48569    37625.902 
   51000    297.33039   -1354.5611    412.81037    394.76762    101.27771    37625.902 
   51100    288.86064   -1379.5362    404.37199     323.2821   -356.24212    37625.902 
   51200    314.03474   -1361.6473     415.3184    465.27653    516.32403    37625.902 
   51300    293.89258   -1353.6096    431.81131    399.26696    857.24609    37625.902 
   51400    299.06167   -1339.9216    425.76031    430.13933    72.899449    37625.902 
   51500    287.46425   -1345.6951     427.2301    373.70447    438.43687    37625.902 
   51600    306.47136   -1330.7465    402.82622    449.68733    263.92842    37625.902 
   51700    303.01301   -1327.5876    422.50059    456.97506    84.212581    37625.902 
   51800    295.54733   -1346.8975    424.24893    405.85485   -453.49844    37625.902 
   51900    306.05159   -1316.9051    422.18832    481.00396   -479.03127    37625.902 
   52000    294.92261   -1320.2917    421.66505    427.06866   -601.28395    37625.902 
   52100    288.32643   -1380.6727    417.77061    333.14299   -860.04813    37625.902 
   52200    300.28487   -1384.1754    405.21969    370.84328   -296.89923    37625.902 
   52300    303.01224   -1409.8982    401.54619    353.70664    55.133655    37625.902 
   52400     294.0149   -1397.0146    407.30325    331.90367    321.57118    37625.902 
   52500    294.15975   -1400.1322    430.46888    352.60286     818.0974    37625.902 
   52600     303.4268   -1391.8625    435.12746    407.18708    794.80687    37625.902 
   52700    297.00589   -1414.3046    410.80597     331.5611    641.34932    37625.902 
   52800      293.262   -1381.5988    397.16224    333.79416    583.93248    37625.902 
   52900    296.74987   -1399.3691    407.95289    342.49277     402.1771    37625.902 
   53000    303.88008   -1402.3521    425.03428    388.64183    248.05363    37625.902 
   53100    298.80745   -1394.6548    426.57381    375.07695    55.203232    37625.902 
   53200    309.76808   -1382.9181    425.08793    434.59641   -356.08988    37625.902 
   53300    306.31149   -1387.1318    419.47349    409.23076   -296.35676    37625.902 
   53400    299.31439    -1395.012    406.79802    357.22261   -118.33106    37625.902 
   53500    304.12342    -1472.709    427.89996    322.24446    84.787116    37625.902 
   53600    309.09892   -1378.7375     419.5973     430.2785     374.5106    37625.902 
   53700    303.73443   -1401.4338     420.0759    383.94712    47.419342    37625.902 
   53800    294.70999   -1448.1514    433.24404    309.83218   -1.3797193    37625.902 
   53900    299.33105    -1415.479    418.35236    348.38486    323.16294    37625.902 
   54000    292.84528   -1438.2612     410.5685    288.66487    323.01863    37625.902 
   54100    307.66919   -1448.2802    439.94438    374.65611    533.74477    37625.902 
   54200    304.14693   -1438.6753    426.01758    354.50141    157.35579    37625.902 
   54300    300.44441   -1450.3703    432.86322    333.00908    475.25752    37625.902 
   54400    292.85389   -1435.2442    426.62407    307.77607   -34.935311    37625.902 
   54500     316.6297    -1442.376    394.61547    375.50945    501.16478    37625.902 
   54600    308.43877   -1422.4414    420.78245    384.79235    350.47479    37625.902 
   54700     303.1657   -1460.2364    416.64173    319.15383    102.47898    37625.902 
   54800    311.49143   -1442.6472    403.84346     361.3694    23.538484    37625.902 
   54900    304.79568   -1407.2646    416.11213    378.92287   -32.089805    37625.902 
   55000    308.69661   -1383.0348    409.93833     414.5138   -331.68493    37625.902 
   55100    300.65966    -1409.378    413.32103    355.42672   -390.65557    37625.902 
   55200    300.92314   -1420.4512    429.71734    361.93418   -541.14301    37625.902 
   55300    296.77909   -1464.3712    414.24969    283.91871    396.36516    37625.902 
   55400    287.80675   -1456.4242    424.24116    261.52599     591.6578    37625.902 
   55500    300.98724   -1443.0033     420.7423    330.69522    846.58774    37625.902 
   55600    296.13565   -1413.1141    432.97086    351.00474    232.81972    37625.902 
   55700    294.31229   -1425.3589    420.75644    318.34942   -75.400011    37625.902 
   55800    289.73434   -1405.5585     437.7844    334.59962   -162.28014    37625.902 
   55900    301.42916   -1425.0739    422.04502    351.91372   -169.18457    37625.902 
   56000     295.7744   -1413.9057    411.63876    327.25721   -517.99607    37625.902 
   56100    298.27554   -1422.8767    418.66392    336.55413   -643.54485    37625.902 
   56200    296.14373   -1403.2487    420.20147    348.13707   -410.03276    37625.902 
   56300    301.68727   -1445.8948    423.32033    333.52834   -596.04721    37625.902 
   56400    298.35771   -1406.8186    427.82842    362.14614    247.39126    37625.902 
   56500    292.00149   -1408.6506    439.76349    343.67757    344.01257    37625.902 
   56600    313.98579   -1395.3284    422.88463    438.94167    913.95534    37625.902 
   56700      303.372   -1425.8574    429.87198     367.6904    449.63688    37625.902 
   56800    304.29748   -1413.1045     447.0418    401.77323    191.61799    37625.902 
   56900    295.70084   -1383.0252    433.58293    379.75115    733.63715    37625.902 
   57000      303.457    -1438.268     415.0979    340.88785    509.74428    37625.902 
   57100    296.98028   -1394.8013    437.22664    377.36997    404.01131    37625.902 
   57200    299.03377   -1438.8376    452.86378    358.20143    444.65671    37625.902 
   57300    299.76343   -1458.2174    427.34842    316.58612    716.85181    37625.902 
   57400    299.53968   -1443.3754    430.28164    333.35549   -45.407107    37625.902 
   57500     290.6089   -1414.9522     414.5438    305.89651    426.92015    37625.902 
   57600    295.59202   -1412.0105    434.32135    351.01517    15.889856    37625.902 
   57700    294.06923   -1434.1197    408.49276    296.23232    381.78356    37625.902 
   57800    295.65611    -1371.336    445.10162    402.75808   -67.391178    37625.902 
   57900    301.80234   -1398.2946    417.09773    375.42319    275.74346    37625.902 
   58000    293.55537   -1430.0922    425.70643    315.16371    139.96181    37625.902 
   58100    295.71554   -1420.7954    418.21976    326.68393    264.92531    37625.902 
   58200    302.54521   -1394.0933    429.14909    395.01516    193.98651    37625.902 
   58300    305.43939   -1435.4163     404.1059     341.6584    334.64561    37625.902 
   58400    313.46955   -1417.8407    413.36743    404.59168    148.29574    37625.902 
   58500    303.14785   -1410.0053    418.06677    370.72973    273.22784    37625.902 
   58600     301.4655   -1435.0996    410.82452    330.83086    205.26515    37625.902 
   58700    301.40286   -1392.1423    419.58445    382.26652    1006.8502    37625.902 
   58800    302.66469   -1390.3024    398.92927    369.12332    446.70285    37625.902 
   58900    298.55803   -1390.8895    400.86287    352.01009    168.91169    37625.902 
   59000    291.10628   -1394.8103    451.69598    365.42634    207.94505    37625.902 
   59100    303.35214   -1392.4767    444.21679    415.32669   -63.206905    37625.902 
   59200    293.08773   -1384.0826    440.77227    374.13703    -165.3845    37625.902 
   59300    289.31771   -1378.2688    424.86157    347.09365    119.12292    37625.902 
   59400    312.92478   -1357.2963     411.8568    461.17665    133.00963    37625.902 
   59500    303.74999   -1396.0552    425.56242    394.88209    865.12412    37625.902 
   59600    303.10984   -1399.7924    434.37768    397.08272    750.61831    37625.902 
   59700       294.23   -1404.4002    427.42163    345.60338   -321.94832    37625.902 
   59800    304.94452   -1417.5989    428.05599    381.20148    129.70564    37625.902 
   59900    299.08552   -1430.1601    425.97446    340.22224    114.17043    37625.902 
   60000    307.57881   -1427.9746    424.34931    378.96039    12.395942    37625.902 
   60100     304.5848   -1379.8123    443.34812    432.66329   -642.53105    37625.902 
   60200    299.68598   -1410.8607    398.96471    335.21097   -704.68056    37625.902 
   60300    304.92429   -1360.5569    451.76782    461.86439   -830.60856    37625.902 
   60400    303.87258   -1382.8862    405.13444    388.17423    125.04878    37625.902 
   60500    298.56291   -1411.6919    425.93763    356.30436   -433.02297    37625.902 
   60600    298.22529   -1413.6192    448.64299    375.56488   -157.69845    37625.902 
   60700     301.9611   -1398.0292    441.95804    401.26257    144.83542    37625.902 
   60800     283.6259   -1449.4146     408.7506    234.25187    5.1410024    37625.902 
   60900    300.48244   -1429.0538    418.12278    339.75602   -179.50238    37625.902 
   61000    295.54567   -1453.9534    421.38861    295.93117    -193.3465    37625.902 
   61100    303.20502    -1445.989    426.59236    343.52859   -33.963372    37625.902 
   61200    293.82379   -1382.7056     428.4459    366.49631    469.37395    37625.902 
   61300    290.95097   -1403.4536    426.30138    330.69031    648.83739    37625.902 
   61400    302.06603   -1413.2294    428.87351     373.4495     1185.728    37625.902 
   61500    291.03016   -1394.1114    434.50588    348.59292    1332.1773    37625.902 
   61600    305.85841    -1407.739    409.39274    376.50614    406.25154    37625.902 
   61700    288.64785   -1371.3921    463.87562    389.97338    605.38663    37625.902 
   61800    302.05012   -1374.8412    439.04771    421.94042    331.01037    37625.902 
   61900    303.41486    -1383.561    442.90078    423.20823    -240.9801    37625.902 
   62000     302.2882   -1387.8559     427.3769    398.32501   -288.16393    37625.902 
   62100    303.67864   -1427.8509    442.16682    379.37005    721.95905    37625.902 
   62200    298.98487   -1436.4096    427.53709    335.08284    699.76286    37625.902 
   62300    304.51867   -1416.4517    420.72666    373.10512    280.75411    37625.902 
   62400    309.50665    -1453.421    428.57528    366.40571    525.43332    37625.902 
   62500    288.34887   -1441.6288    442.55376    297.07089    916.43495    37625.902 
   62600    297.56323   -1451.1398    421.52292    307.94816    438.88767    37625.902 
   62700    299.83129   -1481.5633    430.91156    297.10833    518.90874    37625.902 
   62800    308.68967   -1454.4268    404.47981    337.63209    220.92054    37625.902 
   62900     302.7943   -1470.1101    418.19524     309.1641    277.98416    37625.902 
   63000    301.12405   -1433.6048     424.0889    344.05524   -249.68758    37625.902 
   63100    314.15201   -1411.2359    415.86624    416.76297   -160.41069    37625.902 
   63200    290.49603   -1416.2311    424.13621    313.70268    -229.3408    37625.902 
   63300    294.70023   -1418.4933    422.89861      329.101   -692.87652    37625.902 
   63400    298.01835   -1380.9927    412.28115    370.89933    -308.1742    37625.902 
   63500    303.94836    -1351.268    436.12859    451.12714   -262.25766    37625.902 
   63600    304.35742    -1386.826    435.64221    416.92155   -306.98997    37625.902 
   63700    292.55301   -1387.0472    406.38441    334.38096    99.771972    37625.902 
   63800    299.67806      -1446.3    423.81515    324.58651    238.03236    37625.902 
   63900    302.57346   -1411.8439    437.70598    385.94842     93.95119    37625.902 
   64000     306.0749   -1412.8246    441.40601    404.40692    39.275328    37625.902 
   64100    291.09046   -1431.6548    443.47598    320.29069   -371.55348    37625.902 
   64200      298.608   -1395.6089    422.12761    368.78005    5.1589738    37625.902 
   64300    303.50752   -1407.1301    425.68191    382.83681   -587.96963    37625.902 
   64400    300.00984   -1391.3533     452.8361    410.04555    14.374886    37625.902 
   64500    302.29509    -1426.044    418.91213    351.70315   -116.44416    37625.902 
   64600    297.23806     -1421.14    417.52475    332.48816   -223.92974    37625.902 
   64700    303.59641   -1414.6941    415.42228    365.41266   -193.73897    37625.902 
   64800    301.67179   -1437.7089    424.52744    342.85184     455.0062    37625.902 
   64900    301.98098   -1434.3575    433.50946    356.57502    434.95955    37625.902 
   65000    305.75481   -1412.6529    433.35162    395.08542    714.24682    37625.902 
   65100     309.1422   -1446.2048    406.60742    350.01579    647.41144    37625.902 
   65200    304.34429   -1415.9293    442.75271    394.86969    375.48151    37625.902 
   65300    300.42265   -1448.6443    434.98542    336.75939    818.03719    37625.902 
   65400    302.80131   -1421.6144     428.2472    367.74329    767.66343    37625.902 
   65500    299.97484   -1418.1756    429.77349    360.00324    159.93498    37625.902 
   65600    298.36985   -1401.0261    413.60744    353.77219    270.06095    37625.902 
   65700    291.95025   -1436.2992    416.50516    292.54028   -108.81005    37625.902 
   65800    311.94357   -1403.4877     439.6334    438.35124    480.99779    37625.902 
   65900    290.04991   -1376.4039    434.28672      361.675   -78.555031    37625.902 
   66000    307.25777   -1420.4822    432.04107    392.70145   -361.28419    37625.902 
   66100    308.95539   -1420.2955    412.16274    380.64078   -368.29172    37625.902 
   66200     298.9843   -1381.6634    411.54596    373.83535   -644.06111    37625.902 
   66300     294.5655     -1412.17    420.52843     332.4485    -843.0062    37625.902 
   66400    310.30414   -1411.9895    405.29524    388.14198   -218.72952    37625.902 
   66500    304.64988   -1406.1228    434.44906    397.74629   -441.65832    37625.902 
   66600     314.4992   -1407.9418    431.30373     437.0552    2.7002761    37625.902 
   66700    304.92532   -1412.8293     415.9004    373.72919    360.89563    37625.902 
   66800    309.10457    -1404.908     427.1607    411.69683    962.19924    37625.902 
   66900    295.11396   -1407.9542    412.63777    331.23902    536.11697    37625.902 
   67000    293.33325   -1442.8951    420.54426    296.20015     465.5719    37625.902 
   67100    292.92219   -1419.3281    446.20192    343.57712      654.069    37625.902 
   67200    302.31266   -1442.0404    442.26859    359.14216    939.36073    37625.902 
   67300    304.36358   -1403.3686    431.31228    396.07666    691.41376    37625.902 
   67400    301.98847    -1441.431    398.46567    314.49138    2.7063135    37625.902 
   67500    297.93487   -1415.0071    415.49049      339.719    337.38509    37625.902 
   67600    295.35963   -1408.0453    415.17657    334.79097    628.38102    37625.902 
   67700     305.1076   -1425.5742    438.69528    384.59856    -70.24933    37625.902 
   67800    303.49652   -1419.9699    435.25768    379.52328     540.2153    37625.902 
   67900    289.78376   -1413.1129    410.07528    299.55824   -429.41018    37625.902 
   68000     298.7632   -1391.2283    427.08385    378.81453   -262.98536    37625.902 
   68100    303.02963   -1444.9245    432.30757    349.51988    -98.71465    37625.902 
   68200     297.8862   -1379.7534    443.55208    402.81551      405.683    37625.902 
   68300    303.51878   -1435.5832    433.73739    362.48984     494.9518    37625.902 
   68400    299.09335   -1405.5971    444.14231    382.98818    376.05719    37625.902 
   68500     295.8864    -1435.231    439.66322    334.45979   -303.59342    37625.902 
   68600    309.36056    -1403.505    412.37332    399.46313    491.34199    37625.902 
   68700    303.48637   -1414.9494    438.07249      387.313   -34.072535    37625.902 
   68800    307.86955   -1425.5149    420.21432    378.59203    -52.04753    37625.902 
   68900    291.73985   -1428.8426    396.50279     279.0488   -5.2838281    37625.902 
   69000    302.52081   -1422.4059    409.66634    347.11013    576.24167    37625.902 
   69100    297.49946   -1401.0839    421.52846    357.72297    787.52201    37625.902 
   69200    288.94075   -1386.0055    446.09896    358.89988    163.88772    37625.902 
   69300    314.32658   -1437.2527    416.32957    391.99418    271.12087    37625.902 
   69400    308.00188   -1422.0139    442.85951      405.333   -52.667805    37625.902 
   69500     302.7846   -1410.1046    425.16323     376.0941    195.93848    37625.902 
   69600    301.85378   -1412.0768    418.93494    363.70942    -108.0782    37625.902 
   69700    304.51661   -1440.6283    419.78719    347.97977     52.96176    37625.902 
   69800    291.93525    -1441.957    431.19571    301.50564    275.11619    37625.902 
   69900     297.9731   -1458.1065    417.49947    298.80039   -227.45569    37625.902 
   70000     299.9102   -1446.3558    425.68434    327.44337   -16.810755    37625.902 
   70100    304.25478   -1485.4867    421.79519    303.95245    61.779067    37625.902 
   70200    303.56201   -1456.6782    426.19551    334.04724    273.35645    37625.902 
   70300    295.09323   -1456.5361    422.60182    292.52798     138.8674    37625.902 
   70400    307.75007   -1405.4888    443.36803    421.23474    190.65189    37625.902 
   70500    293.94976   -1406.5446    421.88849    336.66616   -100.22131    37625.902 
   70600    308.78975   -1376.9672    445.68861    456.75033     174.1425    37625.902 
   70700    306.80241   -1418.3568    442.56748    403.30645   -254.61367    37625.902 
   70800    302.06875   -1399.5998    439.96892    398.18675    368.25534    37625.902 
   70900    295.56728   -1388.4054    425.83987    366.02764     263.5856    37625.902 
   71000    301.42085   -1441.6101    420.90828    334.20344   -571.98996    37625.902 
   71100    303.69587   -1442.1556    438.84017    361.81622   -221.76193    37625.902 
   71200    295.70562   -1466.1003    421.12289    284.23755   -7.9613958    37625.902 
   71300    293.19411   -1456.7452    404.20094    265.38131   -305.19023    37625.902 
   71400    307.82305   -1387.2435     412.3603    408.80042   -40.097944    37625.902 
   71500    291.98485    -1403.736    430.64512      339.399   -304.83173    37625.902 
   71600    301.14471    -1384.329    455.64737    424.98238   -419.31072    37625.902 
   71700     305.7758    -1436.944    412.56285    350.09984   -497.95719    37625.902 
   71800     294.2718   -1403.2313    432.14216     351.6807   -78.032206    37625.902 
   71900     297.8295   -1368.4668    456.42634    426.72153    -583.1906    37625.902 
   72000    297.38915   -1391.6545      422.296    367.42405    155.08331    37625.902 
   72100    301.10547   -1399.8509    430.71595    384.35265    -123.4893    37625.902 
   72200    299.30597    -1418.676    448.46031    375.18307   -320.58489    37625.902 
   72300    306.34716   -1397.8579    441.34149    420.53298   -136.95038    37625.902 
   72400    293.53987   -1383.8624    463.54923    399.16664    340.25713    37625.902 
   72500    297.76608   -1374.7072    457.57877    421.34844     386.5299    37625.902 
   72600    301.13279   -1438.4752    445.12622    360.26142    360.78217    37625.902 
   72700    295.13906   -1458.5577    440.05137     308.1619   -51.976267    37625.902 
   72800     305.7521   -1446.6088    428.42999    356.19568   -14.950207    37625.902 
   72900    297.84149   -1430.1466    444.79565     353.4649     27.69118    37625.902 
   73000     299.2033   -1445.4913    440.91795    340.36388    21.750665    37625.902 
   73100    311.03891   -1471.6384    421.47516    347.97579    45.493654    37625.902 
   73200    293.49944   -1436.7803    444.51452    327.03227    314.74222    37625.902 
   73300     306.7146    -1466.669    450.83335    362.86533    824.30188    37625.902 
   73400    297.33612   -1427.0094    467.50579    377.04059    518.94111    37625.902 
   73500    292.03378   -1419.2625    444.29437    337.74174    283.19563    37625.902 
   73600    301.72322   -1430.1822    415.56508    341.64731    -175.2213    37625.902 
   73700    303.22719   -1407.7319    464.38746    419.68043   -24.669534    37625.902 
   73800    304.17731   -1434.8392    444.35152    376.80809    200.60211    37625.902 
   73900    298.89053   -1423.0752    451.63354    372.08971    31.486043    37625.902 
   74000    300.51777   -1412.5435    442.11254     380.4149    90.733353    37625.902 
   74100    301.00525   -1381.1863    437.65314    409.50391    182.70784    37625.902 
   74200    294.59995   -1393.2457    451.30338    382.30264    211.49202    37625.902 
   74300    318.25437   -1392.9845    437.72899    475.31753    511.56073    37625.902 
   74400    309.03602   -1416.1113    429.56192    402.58654    560.40694    37625.902 
   74500    311.38138   -1433.4138    438.06909     404.3338    583.65827    37625.902 
   74600    291.18306   -1398.2611     441.9098    352.53446    946.42187    37625.902 
   74700    301.49716   -1431.3154    439.70625    363.63913    323.15042    37625.902 
   74800    307.53832   -1440.8029    454.19835    395.79915    93.871283    37625.902 
   74900    305.23554   -1452.2659    451.19106    370.97766    171.31129    37625.902 
   75000    303.40788   -1428.9978     454.4533    389.29263   -605.34816    37625.902 
   75100    301.41968   -1412.3366    436.77649    379.33986   -218.91317    37625.902 
   75200     296.2186   -1391.4728    464.26436    404.31243   -88.572075    37625.902 
   75300    307.68502     -1438.54    449.62204    394.14513    70.204481    37625.902 
   75400    298.21367    -1404.829    455.19655    390.85631   -310.89804    37625.902 
   75500    299.25865   -1423.8587    481.67906    403.00642   -458.26375    37625.902 
   75600    297.63471   -1435.0328    441.60496    344.45849   -775.98704    37625.902 
   75700    301.47403   -1446.4722    427.82337    336.49545   -801.40517    37625.902 
   75800    306.35382   -1455.5136    431.43087    352.99654   -1129.4836    37625.902 
   75900    297.70881   -1398.8042    458.09663    397.51191   -285.36078    37625.902 
   76000      293.238   -1379.1803     468.9472    407.88974    -938.2893    37625.902 
   76100    301.24371   -1440.6333    447.73385     361.2096   -473.84728    37625.902 
   76200    304.36138   -1426.7822    438.72194    380.06292   -6.1411796    37625.902 
   76300     293.1962   -1449.3445    438.17187    306.76239    159.26596    37625.902 
   76400    291.00652   -1413.6374    453.68966    348.14442   -605.98122    37625.902 
   76500    303.06417   -1416.3252    463.63809      409.605   -107.95671    37625.902 
   76600    289.44634   -1431.1319    440.79346    310.74063   -225.22202    37625.902 
   76700    303.35137   -1416.7916      433.755    380.54644    500.74921    37625.902 
   76800    299.93998   -1452.1636    457.35996     353.4451      590.265    37625.902 
   76900    309.31443   -1465.2768    439.26335    364.37393    298.12993    37625.902 
   77000    297.66061   -1405.8193    468.96396    401.14744    126.22187    37625.902 
   77100    304.88779   -1366.8925    457.62447    461.22133    342.51261    37625.902 
   77200    289.30824   -1409.2736    446.93563    338.12034    799.54573    37625.902 
   77300    291.42924   -1424.2826    450.64931    336.35906    304.80907    37625.902 
   77400     290.7183   -1463.4235    446.49466    289.86777   -425.44642    37625.902 
   77500    299.85903   -1387.0215    430.74665    391.60995   -1022.1835    37625.902 
   77600    287.32117   -1378.9247    457.48637      370.088   -817.01532    37625.902 
   77700    308.25127   -1434.1002    446.94824    398.45647   -782.03738    37625.902 
   77800    300.32718   -1408.1567    440.50583    382.33825   -742.99281    37625.902 
   77900    294.13479   -1432.4761    440.49487    330.17276   -534.70668    37625.902 
   78000    307.20213   -1444.2361    454.02583     390.6822    333.81051    37625.902 
   78100    286.19923   -1403.9455    460.62317    343.16087    142.17699    37625.902 
   78200    293.04217   -1433.1844    442.29258    326.35078    1010.7899    37625.902 
   78300    296.86475   -1424.0831      428.246    338.58818    328.09821    37625.902 
   78400    298.73296   -1412.2429    446.70832    377.28848   -220.10015    37625.902 
   78500    300.52819   -1412.9567    427.90691    365.84294   -355.46717    37625.902 
   78600    306.50733   -1384.9154     460.8384    453.69236    507.29834    37625.902 
   78700    291.33646   -1414.1194    437.75866     333.2146   -446.51135    37625.902 
   78800    290.87706   -1456.1261    428.38791    279.77212    46.134133    37625.902 
   78900    295.29665   -1415.9192    450.84294    362.30033   -316.67534    37625.902 
   79000    302.94001   -1407.0859    454.01911    408.66723    283.81593    37625.902 
   79100    303.61353   -1425.5361    471.49613    410.72147      329.241    37625.902 
   79200    301.11307    -1408.928    443.12087    387.71468    230.78344    37625.902 
   79300     299.2161   -1421.5653    452.53641    375.96583    81.726907    37625.902 
   79400    303.63622   -1385.6232     452.5881    431.82843   -275.15921    37625.902 
   79500    298.23889   -1367.8348    446.42824    419.19557   -339.12308    37625.902 
   79600    290.29422   -1353.3866    456.92884    408.43261   -475.05447    37625.902 
   79700    301.42008   -1406.1287    419.99706    368.77014   -718.46908    37625.902 
   79800    300.18741   -1389.7317     439.7574    399.38657   -520.39184    37625.902 
   79900    302.50168   -1430.7156    452.35736    381.40547    50.100335    37625.902 
   80000    299.01817   -1451.3398    440.06082    332.82613   -704.96083    37625.902 
   80100    297.55812   -1441.4216    458.35705    354.47752   -238.96591    37625.902 
   80200    308.12819   -1437.0555    446.81588     394.8155   -379.21905    37625.902 
   80300    299.22763   -1444.3015    450.83319    351.57833   -32.052839    37625.902 
   80400    300.20864   -1457.0637    426.42597    318.81855   -566.46047    37625.902 
   80500    301.15968   -1461.3901    422.84156    315.18279   -743.67398    37625.902 
   80600    309.28546   -1485.0822    425.28338    330.45833   -482.11731    37625.902 
   80700    297.23752   -1460.8748    441.54465    316.77075    10.106098    37625.902 
   80800    294.56367   -1466.7442    433.33408     290.6717   -175.65561    37625.902 
   80900    302.57995   -1490.5701    442.21648    311.76185    161.86035    37625.902 
   81000    307.88022   -1493.5381    437.84747    328.24989    -52.46327    37625.902 
   81100    305.28085   -1448.8149    427.31406     350.7554    143.63774    37625.902 
   81200     297.2334   -1390.1604    458.39317    404.31513     208.1673    37625.902 
   81300     300.4783   -1428.7792    434.41006    356.29935    418.38833    37625.902 
   81400    303.30494   -1434.1924    436.63687    365.81889     252.7734    37625.902 
   81500    296.66774    -1410.831    450.09462    372.80336    17.657172    37625.902 
   81600    301.14732   -1435.8472    444.36172    362.19029    325.91721    37625.902 
   81700    293.44887    -1392.055    465.79118    392.80689   -34.006812    37625.902 
   81800    311.73877   -1423.4881    453.61452     431.4114    336.89857    37625.902 
   81900    300.42517     -1438.11    453.67379    365.99344    221.45215    37625.902 
   82000    303.42865   -1437.5927    423.53783    349.87564   -286.77851    37625.902 
   82100    304.04837   -1408.1564    456.62233    415.18207   -489.42849    37625.902 
   82200    295.48612   -1395.2365    436.48111    369.47292   -350.73154    37625.902 
   82300    299.02133   -1377.3748    450.50643    417.25092   -632.72031    37625.902 
   82400    310.11526   -1421.3717    451.18593    423.80146    53.002725    37625.902 
   82500    298.76158   -1394.5702    471.86659    420.24811   -364.94157    37625.902 
   82600     285.7296   -1388.9608    466.60315    362.01445    208.87831    37625.902 
   82700    311.41696   -1432.9503    443.96333    410.85146    327.99966    37625.902 
   82800    299.93961   -1437.0897    456.23053    367.38784    269.15776    37625.902 
   82900    296.04155   -1440.8854    436.37991     326.2195   -9.4124093    37625.902 
   83000    300.32505   -1426.0155    447.49608    371.46016    73.531561    37625.902 
   83100    308.05707   -1415.8168     461.3962    430.31493    244.13784    37625.902 
   83200    293.41961   -1407.2621    434.88758    346.56468    241.33114    37625.902 
   83300    300.05409   -1429.9673    474.38299    393.17727    157.58339    37625.902 
   83400    294.96991   -1468.9032    442.51183    299.51654    281.02809    37625.902 
   83500    311.36171   -1455.7772    446.73403     390.5469    825.82918    37625.902 
   83600    303.03192   -1462.4181    455.86879    355.59789    618.71248    37625.902 
   83700    306.10299   -1460.1309    466.24092    382.06177    1095.5599    37625.902 
   83800    305.41496    -1412.789    457.19329    417.26337    83.555907    37625.902 
   83900    305.22028   -1453.1042    463.95137    382.83113   -225.83504    37625.902 
   84000    309.28959   -1426.7707    452.06098    415.56604   -75.322347    37625.902 
   84100    296.04018   -1424.1763    455.59892    362.14148   -284.50276    37625.902 
   84200     299.8366   -1417.1004    432.01398    362.69754   -227.75558    37625.902 
   84300    292.86528    -1392.758    468.52894     392.2184   -76.156683    37625.902 
   84400     298.2466   -1384.4156    469.19438    425.41557    685.07459    37625.902 
   84500    295.37962   -1426.7441    467.43736    368.44281    256.33421    37625.902 
   84600    291.83581   -1442.8283    468.46702     337.4587    127.01899    37625.902 
   84700    298.92828   -1454.3056    455.14189    344.53736    365.52257    37625.902 
   84800    295.89452   -1431.1548    459.70154    358.61085    202.25502    37625.902 
   84900    292.47548   -1490.5891    434.70029    258.80647    443.72285    37625.902 
   85000    299.34258    -1497.408    447.82053    295.97592    246.21979    37625.902 
   85100    290.66136   -1452.8291     451.6341    305.34569   -84.858517    37625.902 
   85200    306.11502   -1441.4528    447.97721    382.53029    333.42866    37625.902 
   85300    300.03177    -1411.629    449.45447    386.48677    632.11125    37625.902 
   85400     304.9553   -1441.4675    469.07498    398.40029    250.75358    37625.902 
   85500    299.13158   -1464.1052     444.4589    324.96856   -87.541039    37625.902 
   85600    291.90558   -1493.8559    425.63963    243.91733   -120.81978    37625.902 
   85700     298.3907   -1438.0952    459.66553    362.85488   -331.35249    37625.902 
   85800    301.31119   -1423.8718    437.45911    367.99966   -536.88486    37625.902 
   85900    301.06961   -1443.9657    452.48504    361.84572   -209.92949    37625.902 
   86000     304.2038   -1489.0453    438.17564    316.54512   -108.11288    37625.902 
   86100    302.36112   -1456.5492     470.9332    373.51583    687.91388    37625.902 
   86200     316.5462     -1426.22    461.17645    457.85112    344.80999    37625.902 
   86300    306.59368   -1474.1246    471.73941    375.77228     734.9208    37625.902 
   86400    289.27632   -1478.8154    470.49507    291.99451    1055.4213    37625.902 
   86500      304.502   -1433.9242     480.5495    415.38056    605.66546    37625.902 
   86600    295.37787    -1427.243    460.45756    360.95626   -104.39472    37625.902 
   86700    300.59856   -1452.1175    447.97792    347.06945   -169.50851    37625.902 
   86800    302.18402   -1427.6636    455.81995    386.49208    -1108.008    37625.902 
   86900    301.77896   -1410.0449    472.49964    418.96974   -640.77015    37625.902 
   87000    295.97273   -1404.7597    452.56879    378.22476   -778.81034    37625.902 
   87100    305.16577   -1414.1008    451.35521    408.99338   -1177.0918    37625.902 
   87200    305.25213   -1421.4394    478.09801     428.7857   -172.16046    37625.902 
   87300    305.45861   -1399.3534    488.64195    462.34379   -112.13928    37625.902 
   87400    292.28432   -1430.2942    450.16032    333.70209    -318.9637    37625.902 
[...]
  984700    297.46557   -1520.1796    469.45388    286.40034   -486.53959    37625.902 
  984800     287.6988   -1522.0674    486.34942     257.5058    175.53727    37625.902 
  984900    295.44133   -1487.9372    457.08629    297.17607   -261.54005    37625.902 
  985000    298.04246   -1536.2344    467.08662    270.57142    51.378039    37625.902 
  985100    299.82867   -1492.3286    480.43232    335.85202   -287.22042    37625.902 
  985200    291.52081   -1499.8952    495.08631    305.59506   -601.89803    37625.902 
  985300    307.70304   -1516.9485    470.68648    336.88205   -451.20309    37625.902 
  985400    297.71832   -1488.0297    479.95038    330.18287   -204.23501    37625.902 
  985500    306.09314   -1514.2338    484.07347     345.7472     171.1819    37625.902 
  985600    312.54639   -1525.2169    463.86178    343.56014    88.260061    37625.902 
  985700     300.3719   -1535.4248    473.78797    288.55332    754.06472    37625.902 
  985800    302.94432    -1540.866    477.01199    297.89934    395.62189    37625.902 
  985900    301.66653   -1483.5636    510.34438    382.79034    186.58751    37625.902 
  986000    311.05521    -1484.215    469.53983    383.53715    487.55989    37625.902 
  986100    292.21029   -1481.6748    506.30113     338.1296    179.13114    37625.902 
  986200    300.87758   -1481.0552    484.56723    355.97525   -61.196221    37625.902 
  986300      300.209   -1493.2793    487.89012    344.06878   -258.32606    37625.902 
  986400     301.9476    -1473.189    481.66382    365.74782   -260.88831    37625.902 
  986500    297.12571    -1460.523    501.14604    376.22141    111.46813    37625.902 
  986600    308.48338    -1454.924    472.10787    403.83568    17.365012    37625.902 
  986700    291.37814   -1462.3753    500.69593    348.08333    58.502026    37625.902 
  986800    299.37911   -1478.4586    510.35222    377.62111    52.458508    37625.902 
  986900    297.12911   -1517.4679    465.01711    283.16289    245.05288    37625.902 
  987000    312.10574   -1481.4772     476.3282    397.78551   -56.770606    37625.902 
  987100     303.1695   -1468.4512    456.05673    350.37106   -482.33806    37625.902 
  987200    296.02288   -1456.6459    481.62491    355.62002    78.493786    37625.902 
  987300    304.27095   -1491.1712    468.16339    344.70885   -8.5577994    37625.902 
  987400    288.82214   -1465.8503    485.23177    317.65476   -122.67688    37625.902 
  987500    304.10702    -1492.151    469.62601    344.45481   -280.34958    37625.902 
  987600     289.1291   -1482.4318    470.14569    287.36695   -352.56762    37625.902 
  987700     308.0629   -1473.8393     497.9827    408.90506    20.016296    37625.902 
  987800    299.18198   -1524.7128    482.59003    302.71868    413.07956    37625.902 
  987900      299.785   -1469.6611    497.37537    375.26628    436.16248    37625.902 
  988000    305.55952   -1485.3097    490.75131    378.95049    63.281179    37625.902 
  988100    297.84941   -1521.0043    456.72093    274.56804    135.96626    37625.902 
  988200    289.71376   -1498.1844    532.09821    336.19499     88.04414    37625.902 
  988300    296.80799   -1521.0211    467.38429    280.53339    138.24971    37625.902 
  988400    299.99022   -1527.8516    492.97273    313.59569   -94.306334    37625.902 
  988500    303.52162   -1523.1714    484.90118    326.07818   -452.13233    37625.902 
  988600    299.20672   -1515.0389    458.78307    288.69678   -415.06545    37625.902 
  988700    301.51895   -1487.6796    490.68829     358.3549   -353.79101    37625.902 
  988800    297.84111   -1495.1361    488.50606    332.18411   -155.26128    37625.902 
  988900    294.21787   -1502.6322    490.90286    310.79813   -362.38035    37625.902 
  989000    302.61894   -1486.9797    494.94519    368.25623    -77.35375    37625.902 
  989100    302.62964   -1504.0446    478.86393    335.15817   -267.56881    37625.902 
  989200    302.15321   -1482.2326    514.08196    390.04662   -414.53354    37625.902 
  989300    299.36609   -1450.2652    489.34664    384.75047   -595.91885    37625.902 
  989400    297.53744   -1499.1222    477.83976    316.16669   -512.89798    37625.902 
  989500    298.28559   -1491.9558    484.17744    333.03369   -504.09862    37625.902 
  989600    309.37807   -1476.7943    458.90381    372.78299    167.99866    37625.902 
  989700    296.36253   -1462.9954    494.47415    363.64652    460.80456    37625.902 
  989800    307.75044   -1452.8717    480.18956    410.67499   -110.70391    37625.902 
  989900    308.56143   -1441.7126    479.14294    424.43296    488.92998    37625.902 
  990000    308.59177   -1483.2433    472.30476    376.20045    278.42116    37625.902 
  990100    306.99976   -1495.7701    489.86206    374.07474     424.2401    37625.902 
  990200    305.65548   -1482.8002    475.09586    366.23579    681.35194    37625.902 
  990300    299.32224    -1479.479    480.54465    346.53752    474.05965    37625.902 
  990400    302.32849   -1516.1317    487.90291    330.75633     812.0008    37625.902 
  990500    291.89143   -1471.9535    458.98392     299.1003    270.09942    37625.902 
  990600    299.64346   -1519.9224    480.42386    307.41728     292.8726    37625.902 
  990700    313.13532   -1527.7651    465.56186    345.35937    634.42196    37625.902 
  990800    311.31179   -1524.8656    484.03732    358.53738     1158.921    37625.902 
  990900    302.63194   -1555.6206    464.24207     268.9707    1093.0111    37625.902 
  991000    305.76981    -1509.433    476.65939    341.68051    526.45918    37625.902 
  991100    309.18008   -1561.5377    467.52135    295.76712    356.54238    37625.902 
  991200    291.55159   -1522.8886    479.42464    267.07834     30.36136    37625.902 
  991300    298.05583   -1532.5819    483.17978    290.37718    129.14028    37625.902 
  991400    291.72396   -1512.4089    468.29549    267.20379     19.40853    37625.902 
  991500    309.69736   -1470.0462    469.99154    392.05406    46.298516    37625.902 
  991600    302.48202   -1503.8193    502.71138    358.56734    534.51002    37625.902 
  991700    294.66806   -1499.6407    466.68321    291.59356    271.19609    37625.902 
  991800    291.34827   -1522.4109    472.46673    259.68428   -35.295778    37625.902 
  991900    287.12004   -1496.7766     461.9857    255.83141    297.03603    37625.902 
  992000    293.51835   -1513.5565    461.42386    267.25045   -298.14072    37625.902 
  992100    297.64239   -1514.6545    469.95544    293.22182   -389.61094    37625.902 
  992200    301.98045   -1541.2133    475.84458    292.05203   -396.59604    37625.902 
  992300     296.7467   -1552.4916    455.75895    237.16209   -102.26115    37625.902 
  992400     287.9255   -1569.7537    476.26724    200.75645   -284.96108    37625.902 
  992500    302.78181   -1542.3722    451.17415    269.82484    -62.29913    37625.902 
  992600    300.62298   -1563.4744    485.59228    273.43672   -415.55674    37625.902 
  992700    288.01841    -1532.672    478.60218    240.59066   -152.24602    37625.902 
  992800     300.8313   -1525.3613     501.6071    328.50102    144.48973    37625.902 
  992900    311.42324   -1543.4226    459.32092    315.76496    129.88049    37625.902 
  993000    297.24323   -1547.5884    458.81484    247.35303   -7.2839911    37625.902 
  993100    299.93765   -1577.3315    479.52125    250.42801    410.75048    37625.902 
  993200    285.67735   -1544.8378    481.30649    220.60595    143.28889    37625.902 
  993300    305.47745   -1511.4137     472.8106    334.53689    438.36959    37625.902 
  993400    306.51614   -1502.5936    472.67038     347.8857    164.56824    37625.902 
  993500    299.58303   -1542.8722    470.61876    274.39074    155.65497    37625.902 
  993600    299.26878   -1512.5652    483.72641    316.39285   -180.26803    37625.902 
  993700     306.6847   -1519.8211    484.72046      343.466    80.080262    37625.902 
  993800    297.72754   -1570.3068    485.90472    253.90159   -667.68111    37625.902 
  993900    295.75501   -1517.2455    488.01122    300.20267   -296.65257    37625.902 
  994000     290.8919   -1514.1399    456.12465    249.56179   -205.36467    37625.902 
  994100    288.21116   -1514.7945    486.01547    266.74785   -122.58844    37625.902 
  994200    298.34861   -1543.8312    488.55329    285.81746    219.84283    37625.902 
  994300    297.79466   -1542.2489    481.28456    277.64093   -162.22908    37625.902 
  994400    297.23342   -1543.3408     487.3895    280.13117   -147.32738    37625.902 
  994500    297.00207   -1521.9464    472.82501    285.92115   -520.45859    37625.902 
  994600    304.00951   -1483.1758    483.29662    366.66233   -469.01268    37625.902 
  994700    295.96424    -1504.579    486.50264    312.30113    36.456091    37625.902 
  994800    300.57173   -1499.0045    496.38022    348.46414   -463.12343    37625.902 
  994900    299.61382   -1529.9191     476.8312    293.69461   -229.05776    37625.902 
  995000    305.69665   -1536.9347    491.73124    328.92179    1037.2689    37625.902 
  995100    288.09729   -1483.9819     490.0079    301.04111    1165.7838    37625.902 
  995200    300.01918   -1466.2436    495.24055    377.60165    617.12771    37625.902 
  995300    298.74153   -1501.9369    470.16101    311.08565    520.53578    37625.902 
  995400     294.1337   -1531.6101    488.15811    278.69715    119.00318    37625.902 
  995500    302.54265   -1520.5295    482.27885    321.69722   -21.629481    37625.902 
  995600    288.74638   -1570.9319    495.07989    222.08071   -99.205553    37625.902 
  995700    298.79829   -1537.2344    459.30996    265.19229    147.49467    37625.902 
  995800    298.51867   -1556.6878    473.55813    258.73009    321.90669    37625.902 
  995900    295.55335   -1513.6156     453.0072    267.92207    477.54223    37625.902 
  996000    300.08172   -1569.2217    494.93834    274.60245    562.29354    37625.902 
  996100    302.70683   -1528.4309    466.00088    298.25578    666.33899    37625.902 
  996200    297.17234   -1547.4568    496.36424    284.71541    12.069641    37625.902 
  996300    305.95386    -1521.431    469.52065    323.37111   -128.53839    37625.902 
  996400    302.73453   -1532.6534    465.57862    293.73555     170.5112    37625.902 
  996500    297.81945   -1512.1595    512.56641    339.12367     -121.841    37625.902 
  996600    306.40427   -1520.0433    480.88662    338.14937   -76.365955    37625.902 
  996700    302.30886   -1553.8941    471.02138    276.02417    240.42286    37625.902 
  996800    295.22976   -1548.3198     507.0202    285.77639    341.80807    37625.902 
  996900    298.50247    -1493.615    480.70757    328.87956    28.347333    37625.902 
  997000    305.70843   -1529.3948    467.55389    312.33732    88.253918    37625.902 
  997100    297.02133   -1526.4583    487.81316    296.48398   -332.20423    37625.902 
  997200    306.62097   -1539.0546    489.89082     329.1163   -278.43295    37625.902 
  997300    298.46273   -1515.8218    487.27873     313.0653   -499.89361    37625.902 
  997400    301.04917   -1517.5284    481.66651    317.37266    -949.7188    37625.902 
  997500    303.41348   -1549.2974    457.81218    272.37702   -709.67984    37625.902 
  997600    299.06982   -1517.2464    475.83431    302.92512   -1038.8041    37625.902 
  997700    298.95988   -1493.2699    491.42605    341.99922   -691.52504    37625.902 
  997800    303.66341   -1518.2714    498.28845    345.00277   -533.51237    37625.902 
  997900    298.31286   -1536.4629    499.97198    304.44375   -550.41496    37625.902 
  998000    296.13936    -1512.741    498.55891    316.98257    78.652201    37625.902 
  998100    295.66958   -1544.7105    499.58741    283.92991    251.58027    37625.902 
  998200      296.163   -1539.7212     471.4584    263.00812    262.57236    37625.902 
  998300    294.40599    -1555.243    449.84438    217.97441    -738.5643    37625.902 
  998400    297.02403   -1522.4979    472.26574    284.90915   -216.11986    37625.902 
  998500    300.93783    -1524.642    473.06678    301.15885   -46.701022    37625.902 
  998600    296.87473   -1554.5876     481.0967    260.97924    358.82207    37625.902 
  998700    298.46783   -1545.6184    483.70814    279.72105    575.31277    37625.902 
  998800    293.40468   -1560.1984    478.43233    237.10606   -2.6398023    37625.902 
  998900     291.5162   -1508.1894    479.37158    281.56546    583.22825    37625.902 
  999000    299.24308   -1574.0094    470.25866    241.36529    233.99284    37625.902 
  999100    303.15563   -1538.7264    480.63957    304.61641    29.923309    37625.902 
  999200    299.77834   -1501.4019    496.37728    342.49749   -11.198981    37625.902 
  999300    299.20583   -1542.7599    481.67126    283.85995    -209.9911    37625.902 
  999400    289.28933   -1528.3719    494.27156    266.27304   -52.344843    37625.902 
  999500    292.57024   -1517.7903    471.56305    268.89402    48.989015    37625.902 
  999600     299.2237   -1498.1222    447.62177    294.52853    47.555873    37625.902 
  999700    303.42832   -1512.4663    504.68814    356.15079    422.11742    37625.902 
  999800    288.25321   -1540.7291    460.30728    215.29407    462.99643    37625.902 
  999900    292.09596    -1503.488    479.55061     289.0519    69.739732    37625.902 
 1000000    300.77772   -1501.5715    477.61407    328.05695    293.11076    37625.902 
 1000100    291.15643    -1500.918      491.604    299.45206   -61.498777    37625.902 
 1000200    306.67516   -1495.2891    472.97599    356.21059    -44.18862    37625.902 
 1000300    302.91989   -1489.4425    473.99463    346.19569    276.95964    37625.902 
 1000400    300.69178   -1481.0858    483.97532    354.51759     50.79005    37625.902 
 1000500    291.26877   -1497.5158    460.91596    272.67121    -752.2874    37625.902 
 1000600    301.15478     -1495.58    479.40969    337.53892   -601.53908    37625.902 
 1000700     309.2701   -1464.6976    491.98064    417.47112   -26.817634    37625.902 
 1000800     289.8589   -1518.0287    497.08756    281.99243     18.09803    37625.902 
 1000900    301.49354   -1536.6654    494.88594    313.45258    134.58937    37625.902 
 1001000    295.25967   -1506.7848    485.16787    305.59341    253.34058    37625.902 
 1001100    299.71082   -1523.8607    493.95813    317.31605     141.6764    37625.902 
 1001200    294.07505   -1559.2604    470.33506    232.96011    52.950548    37625.902 
 1001300    296.96562   -1535.9073    467.05718     266.0286   -182.94947    37625.902 
 1001400    301.50445   -1549.6466    472.60171     278.2362    142.65672    37625.902 
 1001500    305.32846   -1554.6986    486.39424    304.16581    88.417675    37625.902 
 1001600    288.89551   -1512.1378    476.36158    262.82689    212.27817    37625.902 
 1001700    306.54865   -1527.1157    482.89099    333.73029    -229.2965    37625.902 
 1001800    299.38797   -1546.1679    470.01171    269.61118    87.846301    37625.902 
 1001900    304.21841   -1541.3903    480.29314    306.38328    77.464209    37625.902 
 1002000     295.9291   -1538.3578    478.64324    270.50494    92.607813    37625.902 
 1002100    301.43292   -1513.4446    520.54526    362.06022   -7.6963112    37625.902 
 1002200    304.51498   -1488.7126    486.25546    366.35645   -306.41082    37625.902 
 1002300      301.285   -1513.9075    469.25171    309.63884   -314.41131    37625.902 
 1002400    306.78681   -1566.3595    478.50233    291.16847   -426.51242    37625.902 
 1002500    314.62427    -1559.665     467.7047    322.29512    57.611251    37625.902 
 1002600    306.76708   -1545.7105    474.71316    307.93957    -376.3336    37625.902 
 1002700    298.61689   -1567.3272    452.84147    227.81558    -3.952088    37625.902 
 1002800    301.25274   -1540.3307    492.97134    306.79025    -216.6242    37625.902 
 1002900    302.43854   -1523.5604    451.24878     287.1682    21.674833    37625.902 
 1003000     305.1119   -1535.3984    466.63185    302.73025    281.74084    37625.902 
 1003100    298.87472   -1548.1456    478.85943    274.17403   -115.67118    37625.902 
 1003200    294.88615   -1578.9062    460.47005    207.09522    260.16279    37625.902 
 1003300    300.55484   -1565.9128    479.28324    264.38293    348.20849    37625.902 
 1003400    299.09743   -1545.0516    472.81595    272.22571    257.11405    37625.902 
 1003500    300.40432   -1540.9816    489.55264    298.90692    457.26458    37625.902 
 1003600    298.62128   -1497.3796    489.81444     334.7559    262.70581    37625.902 
 1003700      302.122   -1544.2973    485.30299    299.06266    289.32447    37625.902 
 1003800    306.89879   -1562.2359    481.57965    298.87269   -340.76984    37625.902 
 1003900     306.0169   -1507.4677    504.15881    372.25595   -276.41726    37625.902 
 1004000    295.28693   -1499.4509    498.71888    326.60086   -551.76067    37625.902 
 1004100    301.08876   -1513.8791    476.46601    315.99938   -366.47502    37625.902 
 1004200    297.26021   -1500.4716    515.14521    350.87657   -200.78227    37625.902 
 1004300    297.60063   -1574.5081    479.65687    242.88191   -409.20407    37625.902 
 1004400    305.41921   -1525.6579    503.83708    351.05732   -219.97509    37625.902 
 1004500    300.65985   -1535.7073    464.48974      280.267   -201.81622    37625.902 
 1004600    304.62217   -1545.0686     508.1945    332.42131    370.71179    37625.902 
 1004700    301.50137   -1559.4667    462.32386    258.12441    69.431459    37625.902 
 1004800    304.09281   -1527.1182    508.08474    347.88245     59.66444    37625.902 
 1004900    309.93546   -1522.3643    485.03289    355.84753    240.16952    37625.902 
 1005000    300.17197   -1528.8615    481.70381     302.1338   -669.97107    37625.902 
 1005100    299.17162   -1533.3768    477.28266     288.7007   -469.49772    37625.902 
 1005200    304.00366   -1526.6458     499.0663    338.93563   -730.76325    37625.902 
 1005300    302.74256   -1503.6364    504.18986    361.39993   -307.75111    37625.902 
 1005302    293.43203    -1496.174    500.95828    323.77936    126.97307    37625.902 
Loop time of 599.312 on 32 procs for 1000000 steps with 1509 atoms

Performance: 144.165 ns/day, 0.166 hours/ns, 1668.580 timesteps/s
100.0% CPU use with 32 MPI tasks x no OpenMP threads

MPI task timing breakdown:
Section |  min time  |  avg time  |  max time  |%varavg| %total
---------------------------------------------------------------
Pair    | 252.38     | 274.43     | 304.74     |  78.7 | 45.79
Bond    | 1.4222     | 1.5249     | 1.6222     |   4.0 |  0.25
Neigh   | 38.872     | 38.963     | 39.043     |   1.0 |  6.50
Comm    | 241.9      | 272.23     | 293.67     |  78.7 | 45.42
Output  | 0.38705    | 0.4048     | 0.88554    |  13.6 |  0.07
Modify  | 8.7593     | 8.9997     | 9.2587     |   4.7 |  1.50
Other   |            | 2.762      |            |       |  0.46

Nlocal:        47.1562 ave          76 max          14 min
Histogram: 3 0 3 4 3 5 3 7 3 1
Nghost:        1954.38 ave        2019 max        1885 min
Histogram: 1 2 0 7 5 6 5 3 1 2
Neighs:        5209.97 ave        8789 max        1305 min
Histogram: 2 2 4 5 3 1 5 4 2 4

Total # of neighbors = 166719
Ave neighs/atom = 110.48310
Ave special neighs/atom = 2.0145792
Neighbor list builds = 49764
Dangerous builds = 0

# Output the system volume
variable v equal vol
print 'The system volume is $v'
The system volume is 37625.9024568352

# Outputs
variable A equal xhi-xlo
variable B equal yhi-ylo
variable C equal zhi-zlo
variable D equal xy
variable E equal xz
variable F equal yz
print 'Lattice vectors'
Lattice vectors
print '$A 0 0'
33.5090648838768 0 0
print '$D $B 0'
0 33.5090648838768 0
print '$E $F $C'
0 0 33.5090648838768
Total wall time: 0:10:03
