LAMMPS data file
 1502 atoms
 1001 bonds
 500 angles
 0 dihedrals
 0 impropers
 3 atom types
 2 bond types
 1 angle types
 0 dihedral types
 1 improper types
 0 15 xlo xhi
 0 15 ylo yhi
 0 15 zlo zhi
 0 0 0 xy xz yz

# Atom types
#
# 1 Cl_
# 2 H__HB
# 3 O_3

# Bond Coeffs
#
# 1 Cl_*H__HB
# 2 O_3*H__HB

# Angle Coeffs
#
# 1 O_3

# Dihedral Coeffs
#

# Inversion Coeffs
#
# 1 1

 Masses

 1 35.45
 2 1.01
 3 16

 Atoms # full

1 1 1 0 2.9042899568694 1.03866242872805 8.88492341489136
2 1 2 0 2.61032511413671 0.897385689203878 10.5459157460316
3 2 2 0 9.13253759426996 1.3898823449295 3.46563382074237
4 2 3 0 10.09253759427 1.3898823449295 3.46563382074237
5 2 2 0 10.33253759427 0.459882344929501 3.46563382074237
6 3 2 0 1.92222497236915 3.57122839585878 3.11588483280502
7 3 3 0 2.88222497236915 3.57122839585878 3.11588483280502
8 3 2 0 3.12222497236915 2.64122839585878 3.11588483280502
9 4 2 0 5.17081519749016 5.29941975994967 14.2244466848206
10 4 3 0 6.13081519749016 5.29941975994967 14.2244466848206
11 4 2 0 6.37081519749016 4.36941975994967 14.2244466848206
12 5 2 0 0.792244624318555 14.564137086682 0.634508068906143
13 5 3 0 1.75224462431855 14.564137086682 0.634508068906143
14 5 2 0 1.99224462431855 13.634137086682 0.634508068906143
15 6 2 0 -0.553059419179335 7.5887060320843 6.74951216555201
16 6 3 0 0.406940580820665 7.5887060320843 6.74951216555201
17 6 2 0 0.646940580820665 6.6587060320843 6.74951216555201
18 7 2 0 5.46315824540332 8.69662864058279 13.865047119325
19 7 3 0 6.42315824540332 8.69662864058279 13.865047119325
20 7 2 0 6.66315824540332 7.76662864058278 13.865047119325
21 8 2 0 6.93460555208847 3.06133578223176 5.36282198270783
22 8 3 0 7.89460555208847 3.06133578223176 5.36282198270783
23 8 2 0 8.13460555208847 2.13133578223176 5.36282198270783
24 9 2 0 13.8949841719307 3.94583178375848 11.8874524044804
25 9 3 0 14.8549841719307 3.94583178375848 11.8874524044804
26 9 2 0 15.0949841719307 3.01583178375848 11.8874524044804
27 10 2 0 -0.120441617472097 9.79216471006163 6.71050986740738
28 10 3 0 0.839558382527903 9.79216471006163 6.71050986740738
29 10 2 0 1.0795583825279 8.86216471006163 6.71050986740738
30 11 2 0 0.436744655454531 14.9001335962117 0.954019362106919
31 11 3 0 1.39674465545453 14.9001335962117 0.954019362106919
32 11 2 0 1.63674465545453 13.9701335962117 0.954019362106919
33 12 2 0 5.62573294082657 10.073613906689 6.0486492770724
34 12 3 0 6.58573294082657 10.073613906689 6.0486492770724
35 12 2 0 6.82573294082657 9.14361390668899 6.0486492770724
36 13 2 0 8.77485880206339 7.69912178552709 7.76047022198327
37 13 3 0 9.73485880206339 7.69912178552709 7.76047022198327
38 13 2 0 9.97485880206339 6.7691217855271 7.76047022198327
39 14 2 0 8.31031290275976 0.391812149146572 4.64252785546705
40 14 3 0 9.27031290275976 0.391812149146572 4.64252785546705
41 14 2 0 9.51031290275976 -0.538187850853428 4.64252785546705
42 15 2 0 10.1285466381535 13.0565683873743 4.1309457749594
43 15 3 0 11.0885466381535 13.0565683873743 4.1309457749594
44 15 2 0 11.3285466381535 12.1265683873743 4.1309457749594
45 16 2 0 13.3130035903025 2.8427812472824 11.7637542297598
46 16 3 0 14.2730035903025 2.8427812472824 11.7637542297598
47 16 2 0 14.5130035903025 1.9127812472824 11.7637542297598
48 17 2 0 9.95291419138201 3.9044246512372 11.3432150159497
49 17 3 0 10.912914191382 3.9044246512372 11.3432150159497
50 17 2 0 11.152914191382 2.9744246512372 11.3432150159497
51 18 2 0 13.210383073166 4.15429814643227 7.55368487793021
52 18 3 0 14.170383073166 4.15429814643227 7.55368487793021
53 18 2 0 14.410383073166 3.22429814643227 7.55368487793021
54 19 2 0 11.5395657280181 1.84979143477045 3.47698785946704
55 19 3 0 12.4995657280181 1.84979143477045 3.47698785946704
56 19 2 0 12.7395657280181 0.91979143477045 3.47698785946704
57 20 2 0 8.75285359608941 12.0519372568838 9.21422180486843
58 20 3 0 9.71285359608941 12.0519372568838 9.21422180486843
59 20 2 0 9.95285359608941 11.1219372568838 9.21422180486843
60 21 2 0 9.49050121053122 9.42299409111962 8.98083825479262
61 21 3 0 10.4505012105312 9.42299409111962 8.98083825479262
62 21 2 0 10.6905012105312 8.49299409111962 8.98083825479262
63 22 2 0 5.32635339346714 5.91534714371897 9.60719641414471
64 22 3 0 6.28635339346714 5.91534714371897 9.60719641414471
65 22 2 0 6.52635339346714 4.98534714371897 9.60719641414471
66 23 2 0 11.2196311487071 7.48219513142481 5.57825645199046
67 23 3 0 12.1796311487071 7.48219513142481 5.57825645199046
68 23 2 0 12.4196311487071 6.55219513142481 5.57825645199046
69 24 2 0 10.1576374161243 12.8189545187075 13.7510628893506
70 24 3 0 11.1176374161243 12.8189545187075 13.7510628893506
71 24 2 0 11.3576374161243 11.8889545187075 13.7510628893506
72 25 2 0 8.77244909221306 11.4355090963095 0.474905683659017
73 25 3 0 9.73244909221306 11.4355090963095 0.474905683659017
74 25 2 0 9.97244909221306 10.5055090963095 0.474905683659017
75 26 2 0 3.18178630594164 11.6730859309342 8.43667288077995
76 26 3 0 4.14178630594164 11.6730859309342 8.43667288077995
77 26 2 0 4.38178630594164 10.7430859309342 8.43667288077995
78 27 2 0 1.11243501232937 12.1142718642391 14.0625760098919
79 27 3 0 2.07243501232937 12.1142718642391 14.0625760098919
80 27 2 0 2.31243501232937 11.1842718642391 14.0625760098919
81 28 2 0 9.35735505583696 13.8596426897589 3.11131222522818
82 28 3 0 10.317355055837 13.8596426897589 3.11131222522818
83 28 2 0 10.557355055837 12.9296426897589 3.11131222522818
84 29 2 0 8.6884927579388 3.93716415547766 10.0491799972951
85 29 3 0 9.6484927579388 3.93716415547766 10.0491799972951
86 29 2 0 9.8884927579388 3.00716415547766 10.0491799972951
87 30 2 0 8.24236771135591 2.8126100629475 13.6633079429157
88 30 3 0 9.20236771135591 2.8126100629475 13.6633079429157
89 30 2 0 9.44236771135591 1.8826100629475 13.6633079429157
90 31 2 0 8.43462352568284 10.1634464056138 5.09084763703868
91 31 3 0 9.39462352568284 10.1634464056138 5.09084763703868
92 31 2 0 9.63462352568284 9.2334464056138 5.09084763703868
93 32 2 0 2.98028316392563 13.3417801330239 0.459064616588876
94 32 3 0 3.94028316392563 13.3417801330239 0.459064616588876
95 32 2 0 4.18028316392563 12.4117801330239 0.459064616588876
96 33 2 0 3.30864586212672 10.6002431588154 4.01809844188392
97 33 3 0 4.26864586212672 10.6002431588154 4.01809844188392
98 33 2 0 4.50864586212672 9.67024315881543 4.01809844188392
99 34 2 0 4.8765246388223 2.70375644130632 3.40299993054941
100 34 3 0 5.8365246388223 2.70375644130632 3.40299993054941
101 34 2 0 6.0765246388223 1.77375644130632 3.40299993054941
102 35 2 0 3.08210853880271 10.5383476793673 10.6618407298811
103 35 3 0 4.04210853880271 10.5383476793673 10.6618407298811
104 35 2 0 4.28210853880271 9.60834767936729 10.6618407298811
105 36 2 0 3.45300642700866 14.231499052085 14.7666918626055
106 36 3 0 4.41300642700866 14.231499052085 14.7666918626055
107 36 2 0 4.65300642700866 13.301499052085 14.7666918626055
108 37 2 0 9.80066215197556 7.1654161360953 2.78361097094603
109 37 3 0 10.7606621519756 7.1654161360953 2.78361097094603
110 37 2 0 11.0006621519756 6.2354161360953 2.78361097094603
111 38 2 0 5.79942766271532 5.9924112276081 10.8689856086858
112 38 3 0 6.75942766271532 5.9924112276081 10.8689856086858
113 38 2 0 6.99942766271532 5.0624112276081 10.8689856086858
114 39 2 0 2.00968970588408 7.76523168239742 3.21914427098818
115 39 3 0 2.96968970588408 7.76523168239742 3.21914427098818
116 39 2 0 3.20968970588408 6.83523168239743 3.21914427098818
117 40 2 0 0.450684151584283 1.15719032980502 9.69017517403699
118 40 3 0 1.41068415158428 1.15719032980502 9.69017517403699
119 40 2 0 1.65068415158428 0.227190329805016 9.69017517403699
120 41 2 0 11.9636961263325 2.53945005516522 4.72687107743695
121 41 3 0 12.9236961263325 2.53945005516522 4.72687107743695
122 41 2 0 13.1636961263325 1.60945005516522 4.72687107743695
123 42 2 0 11.3778554722387 6.73831465695053 10.500011513941
124 42 3 0 12.3378554722387 6.73831465695053 10.500011513941
125 42 2 0 12.5778554722387 5.80831465695053 10.500011513941
126 43 2 0 12.1764224201627 2.40880482638255 9.66956962016411
127 43 3 0 13.1364224201627 2.40880482638255 9.66956962016411
128 43 2 0 13.3764224201627 1.47880482638255 9.66956962016411
129 44 2 0 5.99603382448666 6.92261573783122 2.62072373181581
130 44 3 0 6.95603382448666 6.92261573783122 2.62072373181581
131 44 2 0 7.19603382448666 5.99261573783122 2.62072373181581
132 45 2 0 6.26048323974945 2.31633907574229 13.1610638054553
133 45 3 0 7.22048323974945 2.31633907574229 13.1610638054553
134 45 2 0 7.46048323974945 1.38633907574229 13.1610638054553
135 46 2 0 8.27526742170565 9.41463248612359 14.6607144246809
136 46 3 0 9.23526742170565 9.41463248612359 14.6607144246809
137 46 2 0 9.47526742170565 8.48463248612359 14.6607144246809
138 47 2 0 13.0921544744354 7.61669558164664 9.64784919284284
139 47 3 0 14.0521544744354 7.61669558164664 9.64784919284284
140 47 2 0 14.2921544744354 6.68669558164664 9.64784919284284
141 48 2 0 12.8667858119309 4.11407386110164 2.51936199143529
142 48 3 0 13.8267858119309 4.11407386110164 2.51936199143529
143 48 2 0 14.0667858119309 3.18407386110164 2.51936199143529
144 49 2 0 12.8675302192289 5.30642513808794 7.8824047325179
145 49 3 0 13.8275302192289 5.30642513808794 7.8824047325179
146 49 2 0 14.0675302192289 4.37642513808794 7.8824047325179
147 50 2 0 6.66228915142827 5.00658462447114 5.33265751088038
148 50 3 0 7.62228915142827 5.00658462447114 5.33265751088038
149 50 2 0 7.86228915142827 4.07658462447114 5.33265751088038
150 51 2 0 1.87397010784596 14.9446733602695 6.81948614772409
151 51 3 0 2.83397010784596 14.9446733602695 6.81948614772409
152 51 2 0 3.07397010784596 14.0146733602695 6.81948614772409
153 52 2 0 10.960776248686 5.82834653364494 0.761354982387275
154 52 3 0 11.920776248686 5.82834653364494 0.761354982387275
155 52 2 0 12.160776248686 4.89834653364494 0.761354982387275
156 53 2 0 3.70862566094846 13.6192837757431 8.8749132945668
157 53 3 0 4.66862566094846 13.6192837757431 8.8749132945668
158 53 2 0 4.90862566094846 12.6892837757431 8.8749132945668
159 54 2 0 8.01860624735244 14.5157387798559 10.0539412326179
160 54 3 0 8.97860624735244 14.5157387798559 10.0539412326179
161 54 2 0 9.21860624735244 13.5857387798559 10.0539412326179
162 55 2 0 1.37602890419774 7.16919395764358 4.48343909927644
163 55 3 0 2.33602890419774 7.16919395764358 4.48343909927644
164 55 2 0 2.57602890419774 6.23919395764358 4.48343909927644
165 56 2 0 8.54770526566543 0.979687684858218 10.4251070797909
166 56 3 0 9.50770526566543 0.979687684858218 10.4251070797909
167 56 2 0 9.74770526566543 0.0496876848582178 10.4251070797909
168 57 2 0 9.65532162386924 7.92360514443368 11.9166269735433
169 57 3 0 10.6153216238692 7.92360514443368 11.9166269735433
170 57 2 0 10.8553216238692 6.99360514443368 11.9166269735433
171 58 2 0 13.4046557550039 11.2378151136823 4.39663908910006
172 58 3 0 14.3646557550039 11.2378151136823 4.39663908910006
173 58 2 0 14.6046557550039 10.3078151136823 4.39663908910006
174 59 2 0 5.28868133478798 12.4552480310109 6.31524598225951
175 59 3 0 6.24868133478798 12.4552480310109 6.31524598225951
176 59 2 0 6.48868133478798 11.5252480310109 6.31524598225951
177 60 2 0 7.78374095491134 0.503374850787222 9.53982271836139
178 60 3 0 8.74374095491134 0.503374850787222 9.53982271836139
179 60 2 0 8.98374095491134 -0.426625149212778 9.53982271836139
180 61 2 0 9.00130631329492 14.2249473165162 12.670796335442
181 61 3 0 9.96130631329492 14.2249473165162 12.670796335442
182 61 2 0 10.2013063132949 13.2949473165162 12.670796335442
183 62 2 0 9.20377271410078 4.6252825452853 4.7411402373109
184 62 3 0 10.1637727141008 4.6252825452853 4.7411402373109
185 62 2 0 10.4037727141008 3.6952825452853 4.7411402373109
186 63 2 0 9.70271594633348 13.5626098482776 12.4123803572729
187 63 3 0 10.6627159463335 13.5626098482776 12.4123803572729
188 63 2 0 10.9027159463335 12.6326098482776 12.4123803572729
189 64 2 0 11.6553263242543 8.85325632681139 12.9251131124329
190 64 3 0 12.6153263242543 8.85325632681139 12.9251131124329
191 64 2 0 12.8553263242543 7.92325632681139 12.9251131124329
192 65 2 0 8.46632510234602 13.7058343963604 6.54760523233563
193 65 3 0 9.42632510234602 13.7058343963604 6.54760523233563
194 65 2 0 9.66632510234602 12.7758343963604 6.54760523233563
195 66 2 0 7.55466341899708 0.467235953956842 2.88992655579932
196 66 3 0 8.51466341899708 0.467235953956842 2.88992655579932
197 66 2 0 8.75466341899708 -0.462764046043158 2.88992655579932
198 67 2 0 -0.475871332017705 13.2134288146067 13.3354243123904
199 67 3 0 0.484128667982295 13.2134288146067 13.3354243123904
200 67 2 0 0.724128667982295 12.2834288146067 13.3354243123904
201 68 2 0 4.9135714738816 8.55578498257324 8.84665571618825
202 68 3 0 5.8735714738816 8.55578498257324 8.84665571618825
203 68 2 0 6.1135714738816 7.62578498257324 8.84665571618825
204 69 2 0 0.300419237902388 6.03164219454862 9.41635040799156
205 69 3 0 1.26041923790239 6.03164219454862 9.41635040799156
206 69 2 0 1.50041923790239 5.10164219454862 9.41635040799156
207 70 2 0 8.390895129852 5.06569842616096 5.51641431287862
208 70 3 0 9.350895129852 5.06569842616096 5.51641431287862
209 70 2 0 9.590895129852 4.13569842616096 5.51641431287862
210 71 2 0 11.8241232381854 9.97944616171531 0.222699902951717
211 71 3 0 12.7841232381854 9.97944616171531 0.222699902951717
212 71 2 0 13.0241232381854 9.04944616171531 0.222699902951717
213 72 2 0 9.17029135904275 1.98770625674166 7.59859275072813
214 72 3 0 10.1302913590427 1.98770625674166 7.59859275072813
215 72 2 0 10.3702913590427 1.05770625674166 7.59859275072813
216 73 2 0 11.5954493048787 13.4184102892783 14.8844138206914
217 73 3 0 12.5554493048787 13.4184102892783 14.8844138206914
218 73 2 0 12.7954493048787 12.4884102892783 14.8844138206914
219 74 2 0 1.91011768343858 10.0746505455486 10.5324526189361
220 74 3 0 2.87011768343858 10.0746505455486 10.5324526189361
221 74 2 0 3.11011768343858 9.14465054554865 10.5324526189361
222 75 2 0 6.08325555615127 13.1252779035736 5.66229763207957
223 75 3 0 7.04325555615127 13.1252779035736 5.66229763207957
224 75 2 0 7.28325555615127 12.1952779035736 5.66229763207957
225 76 2 0 13.0293748334236 5.29447927064262 12.3441090399865
226 76 3 0 13.9893748334236 5.29447927064262 12.3441090399865
227 76 2 0 14.2293748334236 4.36447927064262 12.3441090399865
228 77 2 0 12.3308292687591 11.3170697381161 9.12417837185785
229 77 3 0 13.2908292687591 11.3170697381161 9.12417837185785
230 77 2 0 13.5308292687591 10.3870697381161 9.12417837185785
231 78 2 0 9.79280437270179 7.26424388395622 11.4637913892511
232 78 3 0 10.7528043727018 7.26424388395622 11.4637913892511
233 78 2 0 10.9928043727018 6.33424388395622 11.4637913892511
234 79 2 0 13.72911266095 11.5607511407603 13.8795782835223
235 79 3 0 14.68911266095 11.5607511407603 13.8795782835223
236 79 2 0 14.9291126609501 10.6307511407603 13.8795782835223
237 80 2 0 8.53256266607903 10.9457651390135 4.66636802768335
238 80 3 0 9.49256266607903 10.9457651390135 4.66636802768335
239 80 2 0 9.73256266607903 10.0157651390135 4.66636802768335
240 81 2 0 -0.111959274653345 7.24169972859323 11.5430127829313
241 81 3 0 0.848040725346655 7.24169972859323 11.5430127829313
242 81 2 0 1.08804072534665 6.31169972859323 11.5430127829313
243 82 2 0 10.8670028163772 3.82398127386346 13.8452356180642
244 82 3 0 11.8270028163772 3.82398127386346 13.8452356180642
245 82 2 0 12.0670028163772 2.89398127386346 13.8452356180642
246 83 2 0 3.97235153286718 3.04214205517434 5.25745957042091
247 83 3 0 4.93235153286718 3.04214205517434 5.25745957042091
248 83 2 0 5.17235153286718 2.11214205517434 5.25745957042091
249 84 2 0 10.0993371549714 5.50002427114174 9.18601116864011
250 84 3 0 11.0593371549714 5.50002427114174 9.18601116864011
251 84 2 0 11.2993371549714 4.57002427114174 9.18601116864011
252 85 2 0 0.243270894717425 4.72567531670444 3.20586953312159
253 85 3 0 1.20327089471743 4.72567531670444 3.20586953312159
254 85 2 0 1.44327089471743 3.79567531670444 3.20586953312159
255 86 2 0 8.47670031988062 12.0395668146107 12.6341054937802
256 86 3 0 9.43670031988062 12.0395668146107 12.6341054937802
257 86 2 0 9.67670031988062 11.1095668146107 12.6341054937802
258 87 2 0 10.0429088766407 2.73236743215472 14.4319502497092
259 87 3 0 11.0029088766407 2.73236743215472 14.4319502497092
260 87 2 0 11.2429088766407 1.80236743215471 14.4319502497092
261 88 2 0 8.94996201896109 7.34864850685932 4.68376451055519
262 88 3 0 9.90996201896109 7.34864850685932 4.68376451055519
263 88 2 0 10.1499620189611 6.41864850685932 4.68376451055519
264 89 2 0 9.61025478129275 13.3866342394054 12.246749040205
265 89 3 0 10.5702547812928 13.3866342394054 12.246749040205
266 89 2 0 10.8102547812928 12.4566342394054 12.246749040205
267 90 2 0 13.621387184104 5.46293341362849 8.6512698198203
268 90 3 0 14.581387184104 5.46293341362849 8.6512698198203
269 90 2 0 14.821387184104 4.53293341362849 8.6512698198203
270 91 2 0 6.4922285712976 7.06463033025153 11.0599758045282
271 91 3 0 7.4522285712976 7.06463033025153 11.0599758045282
272 91 2 0 7.6922285712976 6.13463033025153 11.0599758045282
273 92 2 0 7.22708722620271 2.1819358695671 4.41970781539567
274 92 3 0 8.18708722620271 2.1819358695671 4.41970781539567
275 92 2 0 8.42708722620271 1.2519358695671 4.41970781539567
276 93 2 0 7.9913099754788 8.89997960807756 12.6881049026269
277 93 3 0 8.9513099754788 8.89997960807756 12.6881049026269
278 93 2 0 9.1913099754788 7.96997960807756 12.6881049026269
279 94 2 0 0.175751455100253 5.86972728063352 0.529448142042384
280 94 3 0 1.13575145510025 5.86972728063352 0.529448142042384
281 94 2 0 1.37575145510025 4.93972728063352 0.529448142042384
282 95 2 0 1.20970649222843 14.7746321213804 14.6987005812116
283 95 3 0 2.16970649222843 14.7746321213804 14.6987005812116
284 95 2 0 2.40970649222843 13.8446321213804 14.6987005812116
285 96 2 0 -0.271767208613455 1.16011579212733 1.11847277032211
286 96 3 0 0.688232791386545 1.16011579212733 1.11847277032211
287 96 2 0 0.928232791386545 0.230115792127326 1.11847277032211
288 97 2 0 10.9155813341215 7.73362090270035 13.7731027055997
289 97 3 0 11.8755813341215 7.73362090270035 13.7731027055997
290 97 2 0 12.1155813341215 6.80362090270035 13.7731027055997
291 98 2 0 5.54810986083001 14.6644496817049 8.37532194564119
292 98 3 0 6.50810986083001 14.6644496817049 8.37532194564119
293 98 2 0 6.74810986083001 13.7344496817049 8.37532194564119
294 99 2 0 10.418060207013 3.37832414702512 10.6343943625689
295 99 3 0 11.378060207013 3.37832414702512 10.6343943625689
296 99 2 0 11.618060207013 2.44832414702512 10.6343943625689
297 100 2 0 3.36216247684322 3.51162748335861 0.87447298807092
298 100 3 0 4.32216247684322 3.51162748335861 0.87447298807092
299 100 2 0 4.56216247684322 2.58162748335861 0.87447298807092
300 101 2 0 1.99856145118363 3.35452013224363 13.2229768764228
301 101 3 0 2.95856145118363 3.35452013224363 13.2229768764228
302 101 2 0 3.19856145118363 2.42452013224363 13.2229768764228
303 102 2 0 0.159491610685363 6.06787026784383 4.05690520768985
304 102 3 0 1.11949161068536 6.06787026784383 4.05690520768985
305 102 2 0 1.35949161068536 5.13787026784383 4.05690520768985
306 103 2 0 2.71724166741595 12.0535574124102 1.39134677359834
307 103 3 0 3.67724166741595 12.0535574124102 1.39134677359834
308 103 2 0 3.91724166741595 11.1235574124102 1.39134677359834
309 104 2 0 9.48772473304532 6.43819836824201 4.27878426387906
310 104 3 0 10.4477247330453 6.43819836824201 4.27878426387906
311 104 2 0 10.6877247330453 5.50819836824201 4.27878426387906
312 105 2 0 2.40142285401933 13.0100699192286 4.55970674171112
313 105 3 0 3.36142285401933 13.0100699192286 4.55970674171112
314 105 2 0 3.60142285401933 12.0800699192286 4.55970674171112
315 106 2 0 0.585539774475619 8.58390480437316 13.8079424633179
316 106 3 0 1.54553977447562 8.58390480437316 13.8079424633179
317 106 2 0 1.78553977447562 7.65390480437316 13.8079424633179
318 107 2 0 14.2771013912 12.701673916718 3.35892571834847
319 107 3 0 15.2371013912 12.701673916718 3.35892571834847
320 107 2 0 15.4771013912 11.771673916718 3.35892571834847
321 108 2 0 -0.527093065464869 10.2852911913674 14.0439050272107
322 108 3 0 0.432906934535131 10.2852911913674 14.0439050272107
323 108 2 0 0.672906934535131 9.35529119136743 14.0439050272107
324 109 2 0 12.8869723474793 13.3971746747289 10.3924014978111
325 109 3 0 13.8469723474793 13.3971746747289 10.3924014978111
326 109 2 0 14.0869723474793 12.4671746747289 10.3924014978111
327 110 2 0 8.05133013331331 12.4401749732811 10.2542503515724
328 110 3 0 9.01133013331331 12.4401749732811 10.2542503515724
329 110 2 0 9.25133013331331 11.5101749732811 10.2542503515724
330 111 2 0 3.00484599240124 12.0870288349129 3.58093198738061
331 111 3 0 3.96484599240124 12.0870288349129 3.58093198738061
332 111 2 0 4.20484599240124 11.1570288349129 3.58093198738061
333 112 2 0 -0.688254474224523 1.47541656549089 6.82986028958112
334 112 3 0 0.271745525775477 1.47541656549089 6.82986028958112
335 112 2 0 0.511745525775477 0.545416565490886 6.82986028958112
336 113 2 0 -0.279758064569905 11.9564957629796 0.524945670040324
337 113 3 0 0.680241935430095 11.9564957629796 0.524945670040324
338 113 2 0 0.920241935430095 11.0264957629796 0.524945670040324
339 114 2 0 10.8743876781967 0.944124533971772 12.2780802939087
340 114 3 0 11.8343876781967 0.944124533971772 12.2780802939087
341 114 2 0 12.0743876781967 0.0141245339717715 12.2780802939087
342 115 2 0 10.3954374433681 7.41890389746055 11.3409413897898
343 115 3 0 11.3554374433681 7.41890389746055 11.3409413897898
344 115 2 0 11.5954374433681 6.48890389746055 11.3409413897898
345 116 2 0 9.50237637662329 13.4326929614786 1.78216318949126
346 116 3 0 10.4623763766233 13.4326929614786 1.78216318949126
347 116 2 0 10.7023763766233 12.5026929614786 1.78216318949126
348 117 2 0 12.1829836587142 11.9188058648165 0.641297330148518
349 117 3 0 13.1429836587142 11.9188058648165 0.641297330148518
350 117 2 0 13.3829836587142 10.9888058648165 0.641297330148518
351 118 2 0 1.18499732969329 11.4543418951239 6.58329026657157
352 118 3 0 2.14499732969329 11.4543418951239 6.58329026657157
353 118 2 0 2.38499732969329 10.5243418951239 6.58329026657157
354 119 2 0 13.1060483869817 15.1389974720683 7.40145660820417
355 119 3 0 14.0660483869817 15.1389974720683 7.40145660820417
356 119 2 0 14.3060483869817 14.2089974720683 7.40145660820417
357 120 2 0 9.89438305070624 13.8702873610333 6.99083763873205
358 120 3 0 10.8543830507062 13.8702873610333 6.99083763873205
359 120 2 0 11.0943830507062 12.9402873610333 6.99083763873205
360 121 2 0 2.21502217275091 4.59922055405565 3.7948569317814
361 121 3 0 3.17502217275091 4.59922055405565 3.7948569317814
362 121 2 0 3.41502217275091 3.66922055405565 3.7948569317814
363 122 2 0 5.917609252939 4.19204226852395 6.84879676904529
364 122 3 0 6.877609252939 4.19204226852395 6.84879676904529
365 122 2 0 7.117609252939 3.26204226852395 6.84879676904529
366 123 2 0 6.09415837956592 10.8928960647341 5.70740748080425
367 123 3 0 7.05415837956592 10.8928960647341 5.70740748080425
368 123 2 0 7.29415837956592 9.96289606473409 5.70740748080425
369 124 2 0 0.0243422754295171 12.0754694919474 2.25599576951936
370 124 3 0 0.984342275429517 12.0754694919474 2.25599576951936
371 124 2 0 1.22434227542952 11.1454694919474 2.25599576951936
372 125 2 0 11.4097117159702 5.81085889757611 2.76023439480923
373 125 3 0 12.3697117159702 5.81085889757611 2.76023439480923
374 125 2 0 12.6097117159702 4.88085889757611 2.76023439480923
375 126 2 0 7.13104828071781 10.7585748370644 5.78200697433203
376 126 3 0 8.09104828071781 10.7585748370644 5.78200697433203
377 126 2 0 8.33104828071781 9.82857483706437 5.78200697433203
378 127 2 0 8.59396627100184 1.92137317423709 3.01850700401701
379 127 3 0 9.55396627100185 1.92137317423709 3.01850700401701
380 127 2 0 9.79396627100185 0.991373174237087 3.01850700401701
381 128 2 0 0.154500959180295 9.05102614470758 10.0904043903574
382 128 3 0 1.1145009591803 9.05102614470758 10.0904043903574
383 128 2 0 1.3545009591803 8.12102614470758 10.0904043903574
384 129 2 0 0.383474552510306 12.4662484791502 12.5661342206877
385 129 3 0 1.34347455251031 12.4662484791502 12.5661342206877
386 129 2 0 1.58347455251031 11.5362484791502 12.5661342206877
387 130 2 0 13.3628989609145 12.0886701617297 8.37340155732818
388 130 3 0 14.3228989609145 12.0886701617297 8.37340155732818
389 130 2 0 14.5628989609145 11.1586701617297 8.37340155732818
390 131 2 0 1.03922361784615 15.292716323575 1.15793915349059
391 131 3 0 1.99922361784615 15.292716323575 1.15793915349059
392 131 2 0 2.23922361784615 14.362716323575 1.15793915349059
393 132 2 0 13.952670228174 0.320191192850471 12.3981784796342
394 132 3 0 14.912670228174 0.320191192850471 12.3981784796342
395 132 2 0 15.152670228174 -0.60980880714953 12.3981784796342
396 133 2 0 14.0330296817422 9.60164830828086 8.11991847585887
397 133 3 0 14.9930296817422 9.60164830828086 8.11991847585887
398 133 2 0 15.2330296817422 8.67164830828086 8.11991847585887
399 134 2 0 5.10922623725608 9.89263926091604 7.64660712098703
400 134 3 0 6.06922623725608 9.89263926091604 7.64660712098703
401 134 2 0 6.30922623725608 8.96263926091604 7.64660712098703
402 135 2 0 9.20187879863195 13.0825697075948 9.65972809586674
403 135 3 0 10.161878798632 13.0825697075948 9.65972809586674
404 135 2 0 10.401878798632 12.1525697075948 9.65972809586674
405 136 2 0 11.258789975401 11.9934457032382 14.0879107976798
406 136 3 0 12.218789975401 11.9934457032382 14.0879107976798
407 136 2 0 12.458789975401 11.0634457032382 14.0879107976798
408 137 2 0 11.9853657942452 9.0615111931134 2.88378381519578
409 137 3 0 12.9453657942452 9.0615111931134 2.88378381519578
410 137 2 0 13.1853657942452 8.1315111931134 2.88378381519578
411 138 2 0 3.81760172473267 6.82047521387227 14.2066730756778
412 138 3 0 4.77760172473267 6.82047521387227 14.2066730756778
413 138 2 0 5.01760172473267 5.89047521387227 14.2066730756778
414 139 2 0 12.7095183350332 4.01916388113983 13.927369894227
415 139 3 0 13.6695183350332 4.01916388113983 13.927369894227
416 139 2 0 13.9095183350332 3.08916388113983 13.927369894227
417 140 2 0 9.74479039359838 15.2449355360027 0.830008339835331
418 140 3 0 10.7047903935984 15.2449355360027 0.830008339835331
419 140 2 0 10.9447903935984 14.3149355360027 0.830008339835331
420 141 2 0 1.83179206025787 3.25928605551831 5.39664189331234
421 141 3 0 2.79179206025787 3.25928605551831 5.39664189331234
422 141 2 0 3.03179206025787 2.32928605551831 5.39664189331234
423 142 2 0 7.0849700288102 3.58569433837198 12.5384190073237
424 142 3 0 8.0449700288102 3.58569433837198 12.5384190073237
425 142 2 0 8.2849700288102 2.65569433837198 12.5384190073237
426 143 2 0 5.61348621544428 11.9376041651145 4.67976100626402
427 143 3 0 6.57348621544428 11.9376041651145 4.67976100626402
428 143 2 0 6.81348621544428 11.0076041651145 4.67976100626402
429 144 2 0 11.4918429816328 9.18012033374049 10.5718635697849
430 144 3 0 12.4518429816328 9.18012033374049 10.5718635697849
431 144 2 0 12.6918429816328 8.25012033374049 10.5718635697849
432 145 2 0 6.43374318184331 1.73607703572139 1.15338982315734
433 145 3 0 7.39374318184331 1.73607703572139 1.15338982315734
434 145 2 0 7.63374318184331 0.806077035721391 1.15338982315734
435 146 2 0 1.37033034858294 14.0768950331863 13.8902538910042
436 146 3 0 2.33033034858294 14.0768950331863 13.8902538910042
437 146 2 0 2.57033034858294 13.1468950331863 13.8902538910042
438 147 2 0 0.641194535857067 14.582128213197 9.65211035683751
439 147 3 0 1.60119453585707 14.582128213197 9.65211035683751
440 147 2 0 1.84119453585707 13.652128213197 9.65211035683751
441 148 2 0 7.62569994360209 11.0479222591408 11.3724263815675
442 148 3 0 8.58569994360209 11.0479222591408 11.3724263815675
443 148 2 0 8.82569994360209 10.1179222591408 11.3724263815675
444 149 2 0 9.86057800750248 9.11065068718977 3.87995418626815
445 149 3 0 10.8205780075025 9.11065068718977 3.87995418626815
446 149 2 0 11.0605780075025 8.18065068718977 3.87995418626815
447 150 2 0 4.29764675136656 2.13476023444906 4.41846315166913
448 150 3 0 5.25764675136656 2.13476023444906 4.41846315166913
449 150 2 0 5.49764675136656 1.20476023444906 4.41846315166913
450 151 2 0 5.77801005260088 0.582210621042177 7.81519600306638
451 151 3 0 6.73801005260088 0.582210621042177 7.81519600306638
452 151 2 0 6.97801005260088 -0.347789378957823 7.81519600306638
453 152 2 0 2.69734529240057 13.5448986528814 5.56099857087247
454 152 3 0 3.65734529240057 13.5448986528814 5.56099857087247
455 152 2 0 3.89734529240057 12.6148986528814 5.56099857087247
456 153 2 0 3.81330186777748 11.4483281240705 7.10235932143405
457 153 3 0 4.77330186777748 11.4483281240705 7.10235932143405
458 153 2 0 5.01330186777748 10.5183281240705 7.10235932143405
459 154 2 0 13.9667776277941 7.49339876038954 10.6701686256565
460 154 3 0 14.9267776277941 7.49339876038954 10.6701686256565
461 154 2 0 15.1667776277941 6.56339876038954 10.6701686256565
462 155 2 0 5.79391465449706 13.6031580278091 3.04423642577603
463 155 3 0 6.75391465449706 13.6031580278091 3.04423642577603
464 155 2 0 6.99391465449706 12.6731580278091 3.04423642577603
465 156 2 0 6.70770432843827 13.2830388266034 6.65645025204867
466 156 3 0 7.66770432843827 13.2830388266034 6.65645025204867
467 156 2 0 7.90770432843827 12.3530388266034 6.65645025204867
468 157 2 0 5.45280568694696 8.47871869494207 3.71039645397104
469 157 3 0 6.41280568694696 8.47871869494207 3.71039645397104
470 157 2 0 6.65280568694696 7.54871869494207 3.71039645397104
471 158 2 0 -0.131674446891993 4.30399217567407 8.75943147693761
472 158 3 0 0.828325553108007 4.30399217567407 8.75943147693761
473 158 2 0 1.06832555310801 3.37399217567407 8.75943147693761
474 159 2 0 0.639185809269547 3.23050081538036 11.8634201854002
475 159 3 0 1.59918580926955 3.23050081538036 11.8634201854002
476 159 2 0 1.83918580926955 2.30050081538036 11.8634201854002