LAMMPS (29 Sep 2021 - Update 1)
Reading data file ...
  triclinic box = (0.0000000 0.0000000 0.0000000) to (15.000000 15.000000 15.000000) with tilt (0.0000000 0.0000000 0.0000000)
  2 by 4 by 4 MPI processor grid
  reading atoms ...
  1502 atoms
  scanning bonds ...
  1 = max bonds/atom
  scanning angles ...
  1 = max angles/atom
  reading bonds ...
  1001 bonds
  reading angles ...
  500 angles
Finding 1-2 1-3 1-4 neighbors ...
  special bond factors lj:    0        0        1       
  special bond factors coul:  0        0        1       
     2 = max # of 1-2 neighbors
     1 = max # of 1-3 neighbors
     2 = max # of special neighbors
  special bonds CPU = 0.002 seconds
  read_data CPU = 0.016 seconds
WARNING: Using 'neigh_modify every 1 delay 0 check yes' setting during minimization (../min.cpp:188)
Neighbor list info ...
  update every 1 steps, delay 0 steps, check yes
  max neighbors/atom: 10000, page size: 100000
  master list distance cutoff = 13
  ghost atom cutoff = 13
  binsize = 6.5, bins = 3 3 3
  3 neighbor lists, perpetual/occasional/extra = 3 0 0
  (1) pair hbond/dreiding/lj, perpetual, skip from (3)
      attributes: full, newton on
      pair build: skip
      stencil: none
      bin: none
  (2) pair lj/cut, perpetual, half/full from (3)
      attributes: half, newton on
      pair build: halffull/newton
      stencil: none
      bin: none
  (3) neighbor class addition, perpetual
      attributes: full, newton on
      pair build: full/bin
      stencil: full/bin/3d
      bin: standard
Setting up cg style minimization ...
  Unit style    : real
  Current step  : 0
WARNING: Energy due to 1 extra global DOFs will be included in minimizer energies
Per MPI rank memory allocation (min/avg/max) = 9.222 | 9.542 | 9.888 Mbytes
Step Temp E_pair E_mol TotEng Press Volume 
       0            0 2.0276153e+15    186.17551 2.0276153e+15 1.6477673e+17         3375 
    5674            0   -1128.5702     21.79359   -1106.7767    133.36312    38946.042 
Loop time of 4.67135 on 32 procs for 5674 steps with 1502 atoms

100.0% CPU use with 32 MPI tasks x no OpenMP threads

Minimization stats:
  Stopping criterion = energy tolerance
  Energy initial, next-to-last, final = 
    2.02761530254159e+15  -1106.15268284063  -1106.25788790989
  Force two-norm initial, final = 1.1797500e+17 123.98794
  Force max component initial, final = 5.3050618e+16 99.807757
  Final line search alpha, max atom move = 2.3712193e-05 0.0023666608
  Iterations, force evaluations = 5674 5674

MPI task timing breakdown:
Section |  min time  |  avg time  |  max time  |%varavg| %total
---------------------------------------------------------------
Pair    | 1.7188     | 2.5543     | 3.8805     |  37.5 | 54.68
Bond    | 0.0082918  | 0.011285   | 0.016124   |   2.0 |  0.24
Neigh   | 0.095045   | 0.095234   | 0.09543    |   0.0 |  2.04
Comm    | 0.32581    | 1.6536     | 2.489      |  46.7 | 35.40
Output  | 0          | 0          | 0          |   0.0 |  0.00
Modify  | 0          | 0          | 0          |   0.0 |  0.00
Other   |            | 0.357      |            |       |  7.64

Nlocal:        46.9375 ave          67 max          35 min
Histogram: 6 4 2 8 4 2 1 2 0 3
Nghost:        1887.94 ave        1910 max        1863 min
Histogram: 2 2 2 4 6 2 6 2 5 1
Neighs:        4593.94 ave        7067 max        3247 min
Histogram: 8 3 7 4 0 4 1 1 2 2

Total # of neighbors = 147006
Ave neighs/atom = 97.873502
Ave special neighs/atom = 1.9986684
Neighbor list builds = 97
Dangerous builds = 0
1500 atoms in group WAT
2 atoms in group MOL
Neighbor list info ...
  update every 2 steps, delay 10 steps, check yes
  max neighbors/atom: 10000, page size: 100000
  master list distance cutoff = 13
  ghost atom cutoff = 13
  binsize = 6.5, bins = 6 6 6
  4 neighbor lists, perpetual/occasional/extra = 3 1 0
  (1) pair hbond/dreiding/lj, perpetual, skip from (4)
      attributes: full, newton on
      pair build: skip
      stencil: none
      bin: none
  (2) pair lj/cut, perpetual, half/full from (4)
      attributes: half, newton on
      pair build: halffull/newton
      stencil: none
      bin: none
  (3) compute group/group, occasional, copy from (2)
      attributes: half, newton on
      pair build: copy
      stencil: none
      bin: none
  (4) neighbor class addition, perpetual
      attributes: full, newton on
      pair build: full/bin
      stencil: full/bin/3d
      bin: standard
Setting up Verlet run ...
  Unit style    : real
  Current step  : 5674
  Time step     : 1
Per MPI rank memory allocation (min/avg/max) = 8.066 | 8.095 | 8.354 Mbytes
Step Temp E_pair E_mol TotEng Press Volume 
    5674          300   -1128.5702     21.79359    235.48211    1708.8173    38946.042 
    5700    315.25432   -1015.9362    384.16915    778.74257     1256.152    38946.042 
    5800     297.3331   -1106.1739     165.3272    389.47988   -347.60713    38946.042 
    5900    295.06222   -1083.3875    166.27016    403.04881    478.44089    38946.042 
    6000    307.61141   -1088.9362    185.25038    472.62791    347.52725    38946.042 
    6100    294.80368    -1100.604    180.63591    399.04132    330.16362    38946.042 
    6200    297.25882   -1067.2122    175.67343    438.45547    509.12878    38946.042 
    6300    309.16801   -1122.7847    183.97035    444.46393    741.33182    38946.042 
    6400    295.11432   -1124.5415    179.02856    374.88634    299.60233    38946.042 
    6500    304.98827   -1112.3476    194.41368    446.64331    667.71166    38946.042 
    6600     302.1618   -1109.7654    189.06872    431.23442    271.64735    38946.042 
    6700    297.02232   -1097.9163    197.45814    428.47786    40.035449    38946.042 
    6800    304.04613   -1109.1329    191.68638    442.91542    367.36666    38946.042 
    6900    298.35697   -1114.2383    184.29254    404.96179    119.85717    38946.042 
    7000    308.91568   -1142.4282    194.10238    433.82347    86.052846    38946.042 
    7100    304.21671   -1126.9342    197.81347    432.00438    213.66916    38946.042 
    7200    297.10731   -1072.4271    207.44989    464.33907    564.41503    38946.042 
    7300    296.65979   -1103.3227    202.78497    426.77629    574.86321    38946.042 
    7400    296.71073   -1122.8639    202.38325     407.0613   -220.01968    38946.042 
    7500    308.82063    -1086.026    192.53698    488.23492    123.88633    38946.042 
    7600    303.60942   -1145.3059    186.60128     399.7034    145.55819    38946.042 
    7700     311.0508   -1118.0047    202.29695     475.9945    551.65475    38946.042 
    7800     307.8534   -1104.0621    213.36251    486.69678    207.52044    38946.042 
    7900    297.57561   -1123.4944    196.83039    404.74759   -126.83601    38946.042 
    8000     302.9817   -1160.5806    204.06503    399.08389   -84.635588    38946.042 
    8100    301.08778    -1124.813    210.13554    432.44825   -80.011132    38946.042 
    8200    288.00041   -1102.5088    213.83071    399.89222    184.77869    38946.042 
    8300    296.18685   -1125.9905    218.87442    418.08191    461.86011    38946.042 
    8400     295.8804   -1096.0656    219.09532    446.85659    404.23622    38946.042 
    8500    308.86938   -1070.3925    227.29586    538.84542    920.58788    38946.042 
    8600    300.34289   -1143.9339    211.99542    411.85447    569.11743    38946.042 
    8700    298.83784   -1138.4593    217.55234     416.1521    927.54069    38946.042 
    8800    307.66983   -1143.1114     224.9122    458.37584     180.1464    38946.042 
    8900    291.96468   -1132.3564    218.00169    391.95242    125.47763    38946.042 
    9000    296.14175   -1159.3962    216.78231    382.38234    433.90296    38946.042 
    9100    297.45508   -1162.8071    211.76982    379.83506    193.24768    38946.042 
    9200     304.8182   -1120.4585    216.62953    459.98731    392.36495    38946.042 
    9300     298.7622   -1112.5169    231.40402    455.60773      577.084    38946.042 
    9400    299.21414   -1164.7715    210.03348    384.00462    196.17244    38946.042 
    9500    299.69511   -1128.2748    226.49612    439.11595    513.70016    38946.042 
    9600     303.8482   -1076.2363    229.26309    512.50318    610.97692    38946.042 
    9700      315.018    -1084.161    231.35504    556.64632    110.67749    38946.042 
    9800    294.03782   -1123.5289    227.81485    419.86872    917.78515    38946.042 
    9900    298.73171   -1137.6046    241.69816     440.6777    429.11992    38946.042 
   10000    296.96997   -1122.1577    230.75358    437.29771    646.69567    38946.042 
   10100    299.21611   -1109.3898     234.6687    464.03044    541.89223    38946.042 
   10200    294.19158   -1174.3141    242.73804    384.69466    627.66796    38946.042 
   10300    301.53299    -1175.231    236.36179    410.24849    679.22231    38946.042 
   10400    308.07604   -1172.2444    222.62036    428.76854    245.99451    38946.042 
   10500    302.32722    -1127.687    244.93706    469.92121    129.95947    38946.042 
   10600    303.60446   -1086.9355    243.05323    514.50356    168.17754    38946.042 
   10700    297.56564   -1123.0166    245.37443    453.72474    232.76824    38946.042 
   10800    298.97308   -1135.2498    232.02207     434.4364    209.93744    38946.042 
   10900    306.33058   -1093.0259    248.60067    526.15773    444.51526    38946.042 
   11000    294.07177   -1172.6281    224.40517    367.51179    74.230633    38946.042 
   11100    299.89029   -1132.8351    256.26718    465.19998    430.85604    38946.042 
   11200    299.81039    -1155.572    245.71322    431.55162    333.90813    38946.042 
   11300    305.45522   -1153.3841    236.81417    450.09652    375.25772    38946.042 
   11400    305.40442   -1144.2742    250.31537    472.48037    610.90865    38946.042 
   11500    296.42391   -1144.6194    231.79141    413.43062    519.12933    38946.042 
   11600    308.06957   -1200.7227    243.20843    420.84934    493.08016    38946.042 
   11700    298.21094   -1119.1596     232.9162    448.01075    424.92523    38946.042 
   11800    301.02837   -1144.3721    253.05852    455.54632    194.74857    38946.042 
   11900    304.61812   -1153.1106    237.66874    447.47928     387.6683    38946.042 
   12000    301.95404   -1144.4742    262.25683    468.78417    96.602884    38946.042 
   12100    304.74765   -1136.6465    237.25838    464.11259    27.246219    38946.042 
   12200    296.23769   -1181.5321    238.20906    382.10242   -8.1169222    38946.042 
   12300    301.45871   -1211.2264    249.13317    386.69213    30.802538    38946.042 
   12400    300.97574   -1191.4529    238.85793     394.0294    88.016858    38946.042 
   12500    299.84872   -1216.6551    234.49117    359.41801    118.52064    38946.042 
   12600    295.01626   -1186.6389    251.14549     384.4671    152.62937    38946.042 
   12700    306.57854    -1234.356    247.63151    384.96797    321.52939    38946.042 
   12800    302.91985   -1264.5052    247.28492    338.10246    543.92059    38946.042 
   12900    296.12707   -1261.7861    252.85463    315.99901    295.25054    38946.042 
   13000    297.64578   -1222.0803    258.95374    368.59894   -33.632011    38946.042 
   13100    303.19825   -1194.2756    241.87102    404.16374   -71.652229    38946.042 
   13200    293.34789   -1176.1715    265.96374    402.28812     280.7873    38946.042 
   13300    298.25635   -1165.8168    256.72245    425.36295   -119.37742    38946.042 
   13400      294.011   -1149.6466    281.96141    447.77763    126.04671    38946.042 
   13500    295.16299    -1212.033    249.94292    358.52693   -317.85608    38946.042 
   13600    296.39936   -1188.3138    258.91569    396.75066   -30.427177    38946.042 
   13700    307.71475   -1163.5606    261.67033    474.88576     173.7789    38946.042 
   13800    309.36663   -1139.9479    268.40993    512.62896    491.42071    38946.042 
   13900    293.67368   -1171.2404    278.38927    421.10238     33.77873    38946.042 
   14000    287.49038   -1156.1288    259.03086    389.19034   -81.008011    38946.042 
   14100     295.0842   -1164.9281    257.49371    412.83009    376.73954    38946.042 
   14200    302.71492   -1150.4683    257.28657    461.22408    11.009327    38946.042 
   14300    298.89646   -1130.0758    277.92557    485.17103    488.66833    38946.042 
   14400    301.62384   -1118.6718     274.1967    505.04903    559.05617    38946.042 
   14500    307.04895   -1123.4311    272.42222    522.78826    383.67366    38946.042 
   14600    307.42422   -1126.2765    275.44386    524.64353    273.54312    38946.042 
   14700    300.17868   -1153.4099    276.25024    465.89857     88.56804    38946.042 
   14800    293.70732   -1192.7918    257.27171    378.58401   -188.17546    38946.042 
   14900    306.68959   -1158.1043    273.66928    487.75432    156.17841    38946.042 
   15000    299.83281   -1145.6713    259.40931    455.24878   -127.66946    38946.042 
   15100    299.77214   -1149.4235    273.75176    465.56748   -360.94931    38946.042 
   15200    297.38822   -1134.5297    282.79147    478.83492    298.35294    38946.042 
   15300    296.21222   -1176.7198    265.75329    414.34498    290.05929    38946.042 
   15400    304.24211   -1142.4539    285.45051    504.23544    286.13241    38946.042 
   15500    290.12878   -1171.3229    269.60414    396.37423    120.41586    38946.042 
   15600    293.71927   -1169.1472    275.57876     420.5891    66.714327    38946.042 
   15700     303.2573   -1174.1459    268.08696     450.7736     186.4411    38946.042 
   15800    298.67457   -1215.4708    285.49319    406.35091    157.00551    38946.042 
   15900    293.44546   -1238.1029    276.67602    351.50556   -125.69242    38946.042 
   16000    295.75972   -1159.9645    280.62664    443.94905    91.544671    38946.042 
   16100    307.79624    -1136.248    283.15697     524.0496    228.55909    38946.042 
   16200    305.22743   -1143.3294    264.45105    486.76899    399.02848    38946.042 
   16300    308.15062   -1173.6169    278.63476    483.74412   -68.711753    38946.042 
   16400    296.57895   -1173.3378    284.71853    438.33304    455.33951    38946.042 
   16500    293.99416   -1178.5347    293.55633    430.40912    248.99772    38946.042 
   16600    299.96157   -1180.1545    284.24823    446.18054   -167.10022    38946.042 
   16700    304.51549   -1187.5838    276.14037    451.01855    42.391945    38946.042 
   16800    307.74912   -1220.2733    279.31472    435.97125    403.31375    38946.042 
   16900    306.85686   -1216.4954    287.92274    444.36498    422.52959    38946.042 
   17000    305.39283   -1186.9357    291.94089    471.39254    297.33439    38946.042 
   17100    290.59587   -1173.8775    290.05965      416.365    293.61324    38946.042 
   17200    302.34051   -1191.2288    301.41218     462.9141    411.13504    38946.042 
   17300    304.74049   -1166.3497    292.46339    489.58232    395.94445    38946.042 
   17400    299.84651   -1175.3435    301.25524    467.48376     134.5906    38946.042 
   17500    305.83504   -1202.9926     304.4091    469.78242    504.88616    38946.042 
   17600    305.11536   -1195.5646    284.08731    453.66856    522.92592    38946.042 
   17700    291.84645    -1226.703    298.43605    377.51126    288.28249    38946.042 
   17800    304.96034   -1220.1094    299.51319     443.8561     249.4384    38946.042 
   17900    292.54417   -1192.0941    299.14744    415.95323    397.71412    38946.042 
   18000    291.74059   -1192.9632     289.7543     402.0956    305.04481    38946.042 
   18100    306.41038   -1219.5265    276.25905    427.67255    110.95012    38946.042 
   18200    302.66181   -1209.5516    290.48515     435.1018    14.793261    38946.042 
   18300    305.15023    -1223.398    305.09731    447.00121   -8.8454261    38946.042 
   18400    302.10695    -1226.842    292.08767     416.9313   -35.901189    38946.042 
   18500    302.31764   -1227.6346    286.20743     411.2012    19.646279    38946.042 
   18600    303.50738   -1217.4278    289.03773    429.56144    88.909788    38946.042 
   18700    295.07468   -1214.0296    310.17929    416.37164   -33.940709    38946.042 
   18800    300.97855   -1200.3072     309.8554    456.18519    11.495722    38946.042 
   18900    309.18942   -1225.4075    289.98302    447.94957    271.66991    38946.042 
   19000    304.58948   -1234.8116    310.69849    438.67985    259.14196    38946.042 
   19100     300.1894   -1218.4557     288.3215    412.97193    143.17776    38946.042 
   19200    294.81419   -1257.6368    291.37214    352.79178   -108.23647    38946.042 
   19300      295.713     -1265.92    295.32385    352.48179     -9.37017    38946.042 
   19400    297.17666   -1281.1912    303.74851    352.18389    38.809207    38946.042 
   19500    309.89902   -1217.2068    293.65293    462.99501     169.7083    38946.042 
   19600    294.53183   -1253.8991    288.25865     352.1527    174.29385    38946.042 
   19700    302.99227   -1209.1547    306.18905    452.68112   -336.97212    38946.042 
   19800    307.25594   -1246.1211    308.01854    436.62066    -63.64652    38946.042 
   19900    306.44777   -1214.6861     291.7216    448.14287     640.7413    38946.042 
   20000    300.55367    -1212.476    309.06861    441.32861    243.54647    38946.042 
   20100    298.46642   -1229.9792      313.114    418.53201    614.41328    38946.042 
   20200     294.9707   -1258.5533    317.62132    378.82469    127.54445    38946.042 
   20300    297.15432   -1232.5988     328.6239    425.55177    457.08791    38946.042 
   20400    293.41085   -1209.6882    312.80381    415.89321    533.53941    38946.042 
   20500    286.44793   -1201.0519    312.73847    393.31069    443.37922    38946.042 
   20600     303.2525   -1274.4125    315.68913    398.08769    578.01289    38946.042 
   20700    307.34669   -1250.2226    298.27707     423.1838    596.85736    38946.042 
   20800    301.20458    -1262.894    317.59791    402.35218    625.78675    38946.042 
   20900    291.92546   -1234.2916    308.27322    380.11332     439.9398    38946.042 
   21000    294.92415   -1286.7478     321.0824    353.88303    413.02479    38946.042 
   21100    305.56691   -1243.6861    316.10166    439.58177    758.08546    38946.042 
   21200    289.94155   -1301.6431    324.70092    320.31308    448.63606    38946.042 
   21300    294.94402   -1218.1088    308.69772     410.2262    536.98558    38946.042 
   21400     299.8561   -1204.9758    321.48029    458.11938    263.45345    38946.042 
   21500    290.67603   -1205.3381    329.17497    424.37831  -0.50361211    38946.042 
   21600    303.30811   -1180.5563    331.33872    507.84228    170.66575    38946.042 
   21700    310.03768   -1237.7264    303.72369    453.16657    119.33164    38946.042 
   21800    291.91068   -1271.0853    329.55242     364.5327     278.2974    38946.042 
   21900    295.29184   -1220.7949    309.92432    410.32295    33.190443    38946.042 
   22000    306.86306   -1245.6208    325.58948    452.93408    139.54235    38946.042 
   22100    294.71032    -1209.486    313.48297    422.58865   -281.70661    38946.042 
   22200     294.0722   -1240.7706    337.83764     412.8037   -543.55602    38946.042 
   22300    295.38763   -1222.0744    318.22303     417.7707   -363.97762    38946.042 
   22400    305.06922   -1257.8531     308.4598    415.54616   -760.15301    38946.042 
   22500    297.30361   -1236.0014     334.8107    429.00386   -431.59374    38946.042 
   22600    302.52081    -1215.418    327.51743    465.63676    31.205787    38946.042 
   22700    303.39723   -1252.9157    325.38846    429.93144   -377.32748    38946.042 
   22800    303.55025   -1204.5904    329.36507    482.91799    115.40024    38946.042 
   22900    309.38541   -1204.2651    336.86119    516.84702   -262.97832    38946.042 
   23000    301.68062   -1204.1908    324.43797    470.02532   -4.0604999    38946.042 
   23100    304.57909   -1248.2766    339.38938    453.85926   -299.52392    38946.042 
   23200    306.21541   -1219.0839    344.11952    495.10335    158.19749    38946.042 
   23300    294.18241   -1216.4744    320.96515    420.72051   -388.89436    38946.042 
   23400    309.78793   -1250.5572    311.79202    447.28667    269.66662    38946.042 
   23500    289.66756   -1273.3082    328.22932    350.95048   -34.404386    38946.042 
   23600    308.10678   -1253.4259    327.16109    452.26529   -18.646097    38946.042 
   23700     300.7846   -1287.0891    342.55303    401.23317    408.69903    38946.042 
   23800     293.9226    -1255.916    330.26279     389.4141    573.63825    38946.042 
   23900    297.13811   -1264.2496    323.82473    389.02923    289.78911    38946.042 
   24000    302.16328   -1284.0686    320.60308    388.47219    113.75766    38946.042 
   24100    297.53053   -1276.6413     352.6923    407.26085   -134.24609    38946.042 
   24200    304.77288   -1293.1024    323.80576    394.31694   -168.03326    38946.042 
   24300     296.5046   -1230.3214     345.4943    441.79252   -367.21931    38946.042 
   24400    308.48858   -1243.1463    324.01372    461.10573    296.46415    38946.042 
   24500     306.4631   -1243.4015    324.08113    451.85552    318.82946    38946.042 
   24600    293.14203   -1197.9348    327.49682    441.13694    165.09816    38946.042 
   24700    312.55278   -1209.6413    339.20762    527.98866    365.89124    38946.042 
   24800    306.93868   -1224.2105    339.90277    488.99604   -39.423944    38946.042 
   24900    315.58862   -1174.6461    317.08615    554.44531    190.38238    38946.042 
   25000    289.72185   -1211.0839    336.62538    421.81381   -1.5068116    38946.042 
   25100    307.52762   -1235.8369    326.05949    466.16138    184.80891    38946.042 
   25200    301.09062   -1239.8609    338.37792    445.65542   -4.6761724    38946.042 
   25300      304.205   -1274.8132    323.57355    409.83314    90.098902    38946.042 
   25400    306.17717   -1239.5562    322.52616    452.86663   -104.21259    38946.042 
   25500    293.09044   -1243.1669    341.78757    409.96472     38.79614    38946.042 
   25600     293.4977    -1218.574    333.22147    427.81373    75.411891    38946.042 
   25700    298.08453   -1243.0056    341.40622    432.08919    14.744357    38946.042 
   25800    297.58244   -1251.5877     352.7781    432.63248    8.2332442    38946.042 
   25900    305.90668   -1261.5175    348.12252    455.29142    317.85879    38946.042 
   26000    295.89495   -1209.5137     358.1498      472.528    26.504366    38946.042 
   26100     295.7526    -1217.619    338.00089    443.63697   -47.550153    38946.042 
   26200    300.91422   -1221.6644    332.27138    456.95612   -182.91805    38946.042 
   26300     301.5362   -1217.2176    329.26473    461.17913    194.37257    38946.042 
   26400    291.69533   -1176.0712    347.52496    476.55583   -270.18563    38946.042 
   26500    306.60087   -1217.2541    333.98453    488.52278   -63.885414    38946.042 
   26600    314.63883   -1180.5738    327.77748    554.95943    352.94376    38946.042 
   26700    301.32874   -1208.8911    330.97018    470.28288    48.459679    38946.042 
   26800    294.21694   -1223.6461    354.51272    447.25087    140.40444    38946.042 
   26900    308.89703   -1233.4854    339.48321    488.06367    73.550159    38946.042 
   27000     301.5843      -1256.5    353.85418    446.70138    217.83498    38946.042 
   27100    302.42703    -1258.073     360.2757    455.32048    118.48018    38946.042 
   27200    302.41731   -1208.9956    355.71469    499.79333   -40.438315    38946.042 
   27300    296.24188   -1230.6568    360.19537    454.98281   -25.832643    38946.042 
   27400    305.74213   -1246.5146    320.93253    442.36809    144.37546    38946.042 
   27500    304.33302   -1236.6045    336.94117    461.98221    190.78761    38946.042 
   27600    304.13451   -1211.3216    341.60012    491.03591   -322.66373    38946.042 
   27700    304.60922   -1248.7481    337.95364    452.08687   -118.86486    38946.042 
   27800    289.72838   -1232.9781    352.63799     415.9614    619.07501    38946.042 
   27900    302.11605   -1223.6596    352.53839    480.60517    654.19735    38946.042 
   28000    300.32843   -1260.4154      333.904    417.21685    717.76294    38946.042 
   28100     301.9258    -1277.755    363.06828    436.18841    468.56771    38946.042 
   28200    294.31909   -1252.4457    353.17229    417.56786     96.02692    38946.042 
   28300     300.6684   -1225.4488    343.27317    463.07367    283.78625    38946.042 
   28400    302.36666   -1237.0101    350.11563    465.95318    279.53256    38946.042 
   28500    299.22295   -1257.2483    360.62848    442.16229    123.95974    38946.042 
   28600    300.85853   -1251.6628    329.35094     423.7881    94.679934    38946.042 
   28700    291.30174   -1230.5522     365.2791    438.06789    639.55952    38946.042 
   28800    300.84617   -1280.6194    340.87459    406.29993    260.89742    38946.042 
   28900    307.80342   -1265.2853    335.54309     447.4306     343.4942    38946.042 
   29000    280.59512   -1262.0928      353.968    347.31271   -183.36964    38946.042 
   29100    298.57002   -1223.6243    347.25532    459.49179   -116.44234    38946.042 
   29200    306.17991   -1280.7775    346.16284    435.29427    348.49871    38946.042 
   29300    299.25457   -1233.2153    365.90587    471.61416    203.57212    38946.042 
   29400    294.44608   -1237.6735     369.4807    449.21667   -65.729279    38946.042 
   29500    303.67267   -1261.2104     374.2408    471.72139    402.01737    38946.042 
   29600    287.09504   -1240.2404    358.95254    403.23156    35.006516    38946.042 
   29700     292.2224   -1254.4927    374.38747    427.35504    410.86939    38946.042 
   29800    307.15922   -1242.2476     347.2315    479.27439    495.34247    38946.042 
   29900    297.37251   -1256.6784    373.93477    447.75925    216.27341    38946.042 
   30000    296.97268   -1282.9972    358.23816    403.95489    189.75688    38946.042 
   30100    303.03805   -1277.6537    364.74035    442.93826    -6.716411    38946.042 
   30200     281.5956   -1231.9275      357.047     385.0334    161.98567    38946.042 
   30300    294.74348   -1315.2371    356.17107    359.67398    136.45046    38946.042 
   30400    299.83134   -1285.2197    355.92223     412.2067    438.51929    38946.042 
   30500    296.42383   -1294.9376    382.90874    414.22944    240.99746    38946.042 
   30600    298.39453   -1245.8283    367.41859    456.66592      32.4301    38946.042 
   30700    299.22815   -1243.0246    361.70146    457.48221    334.20865    38946.042 
   30800    305.40591   -1245.4575    364.44097    485.42936    287.77394    38946.042 
   30900    292.84856   -1229.7637    374.91805    455.41612    27.308948    38946.042 
   31000    298.33722   -1203.4375    364.27083     495.6525    24.333364    38946.042 
   31100    294.00813   -1246.4765    361.14545    430.11896    268.51117    38946.042 
   31200    301.64619   -1279.1816    370.22667    440.66918    65.086542    38946.042 
   31300    297.86975   -1245.4115    355.49644    442.81254     249.1231    38946.042 
   31400     309.7494   -1301.5622    350.43079    434.74812    56.885805    38946.042 
   31500    297.74656   -1312.7766    370.97153    390.37135    655.10287    38946.042 
   31600    297.11073   -1302.8407    346.03119    372.52213    384.84224    38946.042 
   31700     302.6496   -1276.5584    361.56748    439.12265    268.29274    38946.042 
   31800    305.36438   -1289.5619    343.30119    419.99938    318.56712    38946.042 
   31900    300.85796   -1264.7412    371.85326    453.20951    296.45705    38946.042 
   32000    307.67917   -1330.3251     371.7695    418.06127    107.82549    38946.042 
   32100    305.73293    -1263.496    356.87472    461.28773    132.50336    38946.042 
   32200    304.99166    -1233.539    358.74536    489.79878    457.76957    38946.042 
   32300    295.42272   -1276.0144    390.37312    436.13786    660.63552    38946.042 
   32400     308.1724   -1296.7005    378.47406    460.59724    620.32537    38946.042 
   32500    312.30786   -1297.9375    384.08208    483.47112    23.803599    38946.042 
   32600    307.39109    -1359.122     350.2233    366.42922   -460.48855    38946.042 
   32700    298.38743   -1333.3276    364.64544     366.3617   -339.59444    38946.042 
   32800    309.14978   -1297.7544    363.25579    448.69805    45.928903    38946.042 
   32900    311.30814   -1306.2674    372.71492    459.30108   -441.37331    38946.042 
   33000    300.92202   -1317.9075     348.2731    376.74963   -301.60139    38946.042 
   33100    303.58777   -1302.2534    356.47559    412.53334   -126.64622    38946.042 
   33200    297.59047    -1316.955    357.35151    371.87455   -347.83856    38946.042 
   33300     304.9815   -1280.3219    377.32707    461.55212     9.162128    38946.042 
   33400    299.26353   -1270.9629    384.24946    452.25027    306.75379    38946.042 
   33500    299.15736   -1269.0163     371.1241    440.59641    311.33023    38946.042 
   33600    306.38732    -1245.822     358.8244    483.83928    492.34946    38946.042 
   33700    294.04915    -1258.742    382.14498    439.03644    525.69035    38946.042 
   33800    304.39453   -1249.0775    396.22669    509.06997    301.60373    38946.042 
   33900     299.5777   -1247.2931    374.18133    467.25754    334.20062    38946.042 
   34000    305.43372    -1216.316     364.5897    514.84397    550.25375    38946.042 
   34100    293.90415   -1276.7465    365.83119     404.0694    143.25942    38946.042 
   34200    295.88841    -1231.975     382.0823    473.96998    -104.7263    38946.042 
   34300    298.52798   -1286.4704    377.47177    426.67401    54.828871    38946.042 
   34400    296.69557   -1263.5401    403.97218    467.90618    131.64053    38946.042 
   34500    306.51701   -1283.9944    369.94336    457.36609    240.92086    38946.042 
   34600     301.7113    -1261.643    394.48815    482.76056    792.31793    38946.042 
   34700    304.23803   -1259.6508    389.84193    491.41165    251.84405    38946.042 
   34800    292.74447   -1240.8886    386.11311    455.02056    486.30383    38946.042 
   34900     297.6579   -1226.2819      381.435    486.93288   -128.45605    38946.042 
   35000    299.70751   -1262.1195    403.76097    482.59158   -32.147036    38946.042 
   35100    303.62225   -1311.5026    378.23809    425.20091    225.23709    38946.042 
   35200    313.85727   -1280.0178    388.43476    512.67591    545.28867    38946.042 
   35300    306.68627   -1283.2507    384.42682    473.35055    336.88424    38946.042 
   35400    310.59534    -1277.696    389.82825    501.79665    498.47197    38946.042 
   35500    304.05526   -1331.6262    381.64441    410.42099    181.67467    38946.042 
   35600    291.94201   -1307.7065    366.80313    365.30232     58.39967    38946.042 
   35700    301.60208   -1299.9133    393.20805    442.72158    337.56266    38946.042 
   35800    302.85528    -1293.912     396.5018    457.62371   -3.7120724    38946.042 
   35900    300.57416   -1317.2458    386.44031     414.0222    596.84438    38946.042 
   36000    301.85172   -1339.4417    392.63123    403.73322    10.257843    38946.042 
   36100    301.69982   -1304.9992    396.22915    441.09402    470.24247    38946.042 
   36200    303.63117   -1287.0919    394.71913    466.13261    169.92544    38946.042 
   36300    305.18767   -1295.2783    364.16034    434.35141    1.5606696    38946.042 
   36400    306.58763   -1306.9616    368.20165    432.97312    -79.85942    38946.042 
   36500    303.11144   -1300.0088    378.53123    434.70236   -83.875602    38946.042 
   36600    291.98296    -1290.103    351.46063    367.74661   -190.72743    38946.042 
   36700    301.04676   -1261.1481    380.70873    466.50284   -127.27448    38946.042 
   36800     298.1334     -1333.07    377.71655    378.55384    26.018796    38946.042 
   36900    297.02008   -1325.6332    367.42259    370.71543   -258.30463    38946.042 
   37000    292.69565   -1316.5396    372.38938    365.42745   -327.97538    38946.042 
   37100    303.10896   -1340.9952     381.4133    396.58699    260.97845    38946.042 
   37200    312.00921   -1341.2142    391.11434    445.89046   -344.89951    38946.042 
   37300    291.60182   -1294.0478    376.70517    387.34103   -505.50495    38946.042 
   37400    293.89646   -1303.8767    379.50677    390.58036   -579.25732    38946.042 
   37500    301.89163   -1294.3229    365.36572    421.76515   -500.78973    38946.042 
   37600    289.53248   -1309.8692    377.23283     362.7887   -659.98501    38946.042 
   37700     286.4857    -1273.728    382.12111    390.18621   -651.62597    38946.042 
   37800    305.88008   -1287.5046    385.80678    466.86964   -44.402635    38946.042 
   37900    301.71053    -1332.453    390.55724    408.01622   -118.06308    38946.042 
   38000    292.72363   -1309.7165    371.98668    371.97304    217.33487    38946.042 
   38100    303.93728   -1365.1348    385.20159    379.94172     69.76964    38946.042 
   38200     300.4052   -1302.8342    385.49184    426.72932    266.42349    38946.042 
   38300    297.75497   -1325.6162    364.50445    371.10232    308.91233    38946.042 
   38400    296.07691   -1335.7325     372.5837    361.55728    424.17322    38946.042 
   38500    291.73157    -1306.998    366.16274    364.42896    624.68288    38946.042 
   38600    296.99207   -1348.2841    354.35022    334.86684    770.29162    38946.042 
   38700    308.23392   -1288.2683    398.92167    489.75228    737.67979    38946.042 
   38800    300.40096   -1348.5286    377.33145    372.85562    242.25323    38946.042 
   38900    306.09404   -1314.1872    379.15869     434.4962    369.73832    38946.042 
   39000    297.21394    -1331.347     372.7851    371.23146    157.10663    38946.042 
   39100    290.58545   -1319.9091    391.00756    371.23466    42.683924    38946.042 
   39200    301.46306   -1325.3078    396.90437    420.40139    -65.42208    38946.042 
   39300     303.0352   -1343.0927    381.99458    394.74075   -56.007329    38946.042 
   39400    300.34806   -1319.7285    394.51243    418.60003    154.93068    38946.042 
   39500    297.96098   -1296.6252     374.8328    411.34342   -217.28665    38946.042 
   39600    310.96066   -1274.2375    381.55727     498.6187    119.63791    38946.042 
   39700    292.28009   -1291.3164     378.0678    394.46976    69.414148    38946.042 
   39800    308.27606   -1317.9428    378.54445    439.88914    48.108723    38946.042 
   39900    292.77288    -1290.221    363.45455    383.15676    147.98444    38946.042 
   40000    299.53639   -1330.9414     394.3518    403.59487     232.5206    38946.042 
   40100    310.70034   -1331.0185    374.82403    433.93972    573.40351    38946.042 
   40200    295.17441    -1314.944    401.48825    407.21239     443.8181    38946.042 
   40300    299.86887   -1342.3761    384.18403    383.47996    558.81595    38946.042 
   40400    305.10226   -1290.2976    388.03611    462.82577   -6.0981377    38946.042 
   40500    295.30336   -1322.6537    386.12314    384.71453    216.49708    38946.042 
   40600    296.33184   -1338.2752      381.113    368.68453    453.78319    38946.042 
   40700    297.07367   -1313.8887    388.20094    403.47804    189.02677    38946.042 
   40800    297.83935   -1358.7569    391.70562    365.54035    637.11412    38946.042 
   40900    282.73244   -1356.4248    388.71451    297.29003    342.43275    38946.042 
   41000    301.54582   -1314.5684    376.73535    411.34201    375.78239    38946.042 
   41100    296.49395   -1311.8807    405.26785    419.95922    225.49251    38946.042 
   41200    301.82845   -1363.3953     374.1542    361.19853   -285.33548    38946.042 
   41300    298.67622   -1350.9907     364.0651    349.41027    85.529404    38946.042 
   41400    293.90107   -1368.4711    383.83375    330.33361    201.17955    38946.042 
   41500     292.5827   -1414.2964     367.0184    261.79434    707.79854    38946.042 
   41600    300.21597    -1354.866    365.58033    353.93938     242.8144    38946.042 
   41700    296.05643   -1334.0144    378.10293    368.70303   -124.52992    38946.042 
   41800    295.27779   -1342.8967    372.79287    351.02686   -25.750385    38946.042 
   41900    304.92321   -1329.1149    390.97506     426.1464   -1.9357215    38946.042 
   42000     304.8664   -1312.0275    394.78783    446.79232     205.8138    38946.042 
   42100    308.94318   -1364.1576    390.67151    408.78619    94.435964    38946.042 
   42200    300.97861   -1323.7726    393.60082    416.46549   -460.91699    38946.042 
   42300    294.42278   -1366.7301    386.34426    336.91933   -67.602874    38946.042 
   42400    303.70206   -1356.0318    399.98888    402.77957   -135.88804    38946.042 
   42500    294.41509   -1340.9913    391.58329     367.8628   -6.4296744    38946.042 
   42600    296.17361   -1324.7083    401.22319    401.65359   -373.18218    38946.042 
   42700    310.63943   -1319.4968    401.15018    471.51504   -147.82633    38946.042 
   42800    304.11795   -1348.3963    403.49684    415.78383   -391.81887    38946.042 
   42900    303.89936    -1322.084    392.81103    430.43231   -69.782189    38946.042 
   43000    291.47257   -1307.9547    400.50882    396.65952    422.64345    38946.042 
   43100    300.96432   -1311.0261    392.89786    428.44507    512.44658    38946.042 
   43200    299.11671   -1306.1514    387.51154    419.66687    940.75204    38946.042 
   43300     298.7719   -1347.2178    405.61052    395.15676    439.87043    38946.042 
   43400    301.97583   -1358.1487    373.88859    366.83896    500.12549    38946.042 
   43500    290.41129   -1304.1139     404.6524    399.89543    379.86909    38946.042 
   43600    303.60734   -1298.5706    391.11993    450.94805    244.45137    38946.042 
   43700    301.58734   -1306.1298    380.59521    423.82622   -8.4585234    38946.042 
   43800    301.21454    -1325.827    402.59142    424.45723      602.287    38946.042 
   43900    296.68087   -1273.5248    421.77512    475.65871    48.105616    38946.042 
   44000     313.2248   -1286.8337    399.15038    513.74585     527.0543    38946.042 
   44100     293.4946   -1321.3134    386.39686    378.23578   -55.427592    38946.042 
   44200    296.05013   -1345.0714    408.93603    388.45088    330.87106    38946.042 
   44300    304.60126   -1355.7972    410.75782    417.80636    111.97581    38946.042 
   44400     303.9771   -1332.1759    396.83249    424.70966    512.87728    38946.042 
   44500    292.16018   -1378.6294    400.40371    328.95623    320.52656    38946.042 
   44600    292.43871   -1347.0309    404.74693    366.14411    275.58577    38946.042 
   44700    296.41359   -1347.3335    382.51523    361.39416    478.08973    38946.042 
   44800     315.0601   -1325.9431    398.86698    482.56446    565.88138    38946.042 
   44900    297.99466   -1276.9774      390.994    447.30309     525.8017    38946.042 
   45000     301.6369   -1348.1941    430.68311    432.07156    439.79122    38946.042 
   45100    306.35365   -1378.0301    404.72587    397.38201    56.432871    38946.042 
   45200     293.5529   -1340.7584    389.75246    362.40725    129.12862    38946.042 
   45300    284.16614   -1357.2942    402.19006    316.31082    174.53255    38946.042 
   45400    299.62985   -1391.9799    399.17151    347.79422    409.85531    38946.042 
   45500    305.37729   -1355.2956     396.3985    407.42066    31.525919    38946.042 
   45600    300.63673   -1350.8618    410.92131     405.1671    184.64649    38946.042 
   45700    293.55034   -1388.6981     415.0303    339.73393    221.06071    38946.042 
   45800    304.14356   -1377.6586    423.70329    406.84258   -27.896345    38946.042 
   45900    295.60106   -1389.9718    415.80156    348.40678   -249.07538    38946.042 
   46000    303.69863   -1384.2219    403.12936    377.71461   -507.99429    38946.042 
   46100     305.6422   -1369.2729    402.85674     401.0869    260.90047    38946.042 
   46200    285.17396   -1357.3505    412.58025    331.15389   -312.22847    38946.042 
   46300    302.71406   -1371.0002    414.62711     398.0289    328.83723    38946.042 
   46400    304.13721   -1381.1215    406.04383    385.69181    107.65345    38946.042 
   46500    301.59434   -1383.1101    410.42656    376.70865    319.94387    38946.042 
   46600    299.17147   -1370.9579    405.26045    372.85427   -6.1085972    38946.042 
   46700    298.74505   -1347.5541    411.37662    400.46636    534.17095    38946.042 
   46800    299.16402   -1337.8875    413.60916    414.24008    629.16086    38946.042 
   46900    299.61651   -1344.4958    406.90609    402.95329   -4.8333636    38946.042 
   47000     302.5796   -1361.6364    418.33406    410.49811    191.77893    38946.042 
   47100    285.15775   -1348.9286    403.57401    330.49702   -234.21446    38946.042 
   47200     308.6105    -1354.084    399.74211    426.44198    188.38415    38946.042 
   47300    316.70319   -1345.1111    407.05102    478.93202   -541.94443    38946.042 
   47400    304.79101   -1341.8298     409.6824     431.5473   -450.22957    38946.042 
   47500    296.61037   -1305.9196    397.98824     419.1615   -260.00783    38946.042 
   47600    303.41358   -1319.3119    396.30902    434.52887    -199.2209    38946.042 
   47700    292.44568    -1311.943    413.24347     409.7597   -305.04312    38946.042 
   47800    300.81031   -1318.4822    391.45875    418.86078   -268.78609    38946.042 
   47900    296.74961   -1372.3473    416.75738    372.12596   -146.50799    38946.042 
   48000    295.70255   -1355.5327    409.23065    376.72906   -406.90554    38946.042 
   48100    294.37464   -1337.8114    408.58296    387.86135    179.71859    38946.042 
   48200    307.58274    -1316.734    408.40283     467.8542    106.39735    38946.042 
   48300     289.0654   -1331.2437    419.01873    381.11023    365.79511    38946.042 
   48400    302.22998   -1352.0531     390.5641     390.7472   -29.893542    38946.042 
   48500    302.22396   -1359.8612    400.56901    392.91705    -242.7163    38946.042 
   48600    303.06985   -1342.3669     405.9236    419.55061    224.41264    38946.042 
   48700    303.71941   -1357.1584    408.58347    410.32524    -199.3656    38946.042 
   48800    299.57268   -1363.0852    410.35903    387.62064   -414.81225    38946.042 
   48900    299.56569   -1358.5432    405.58908    387.36147    481.59764    38946.042 
   49000    313.73599   -1340.1334    397.18272    460.76558    674.68064    38946.042 
   49100    299.15705   -1382.0938      404.712    361.10543     466.9587    38946.042 
   49200    315.02686   -1312.0349    393.02801    490.48504    794.24165    38946.042 
   49300    297.31612   -1325.2467    409.01875    414.02265    280.31382    38946.042 
   49400    288.73663    -1308.647    426.15394    409.37124    143.51816    38946.042 
   49500    306.96957   -1309.4948    393.67939    457.62653    33.944278    38946.042 
   49600      307.038   -1351.3671    405.14911    427.53019    -459.6153    38946.042 
   49700    293.53761   -1326.4216    420.08977    407.01294   -494.81131    38946.042 
   49800    300.63252   -1332.8417    413.73742     425.9845   -688.30946    38946.042 
   49900    300.85654   -1336.4783    398.87508    408.48792   -989.40054    38946.042 
   50000    290.85029   -1332.8744    395.57433     364.0211   -891.28051    38946.042 
   50100    301.88101   -1351.6709    391.76512    390.76898   -525.55137    38946.042 
   50200    292.08282   -1318.1592    396.54777    385.22432   -533.66684    38946.042 
   50300    294.10143   -1340.1568    381.10487    356.81545   -1008.9154    38946.042 
   50400    286.75462   -1363.5323    397.71376    317.17778   -150.57626    38946.042 
   50500    299.75666   -1323.4722    401.40055     419.0984    297.87123    38946.042 
   50600    302.77171   -1330.0203    408.28795    432.92758   -354.19259    38946.042 
   50700    306.18099   -1388.2593    397.73548    379.38985    621.76909    38946.042 
   50800    292.70041   -1391.9712    392.54598    310.17378   -102.84491    38946.042 
   50900    309.95607   -1326.5614    398.56779    458.81059    15.553565    38946.042 
   51000    304.04946   -1335.9277    406.86787    431.31699    -309.2947    38946.042 
   51100    293.15408   -1367.0167    417.34758    361.95965   -28.387494    38946.042 
   51200    297.19536   -1339.1093    409.98607    400.58704   -13.379072    38946.042 
   51300    295.98057   -1339.7393    389.45942    373.99517    378.74884    38946.042 
   51400    307.78266   -1364.3491     404.9212    417.65205    102.63179    38946.042 
   51500    295.34914   -1364.8367    388.89673    345.50995    499.45649    38946.042 
   51600    313.04512   -1357.8002    410.05618    452.88117    723.07689    38946.042 
   51700    308.72908   -1330.2426     385.2336    436.30537     324.9771    38946.042 
   51800    298.94169   -1343.0251    375.19903    369.69766    305.03102    38946.042 
   51900     300.7477   -1396.8124    386.64819     335.4399    734.05086    38946.042 
   52000    298.80187   -1397.0383    417.32138    357.18115    239.05058    38946.042 
   52100    299.81274   -1360.0272    427.42236    408.81608    417.16114    38946.042 
   52200    301.26756   -1364.0829    375.55303    359.40017    444.50365    38946.042 
   52300    305.85627   -1341.8993    406.51822    433.07977    784.40331    38946.042 
   52400    301.72744   -1355.7291    419.33658    413.59512    399.21162    38946.042 
   52500     304.6527   -1338.0301    402.89879    427.94454    493.01492    38946.042 
   52600    301.70798   -1344.5737    428.47424    433.80112    854.68908    38946.042 
   52700    306.21465   -1359.9336    378.06528    388.19597    294.85345    38946.042 
   52800    292.98648   -1354.5139      408.032    364.39696    722.90686    38946.042 
   52900    307.89435   -1339.1339    406.39671    444.84244     334.4652    38946.042 
   53000     295.2659   -1353.9388    398.20624     365.3449    295.56987    38946.042 
   53100    300.61038   -1348.5494     420.9444    417.38473    210.29248    38946.042 
   53200    296.98902   -1363.0848    437.46086    403.16315    -99.68641    38946.042 
   53300    288.85491   -1360.2192    419.50032    351.67459    139.40687    38946.042 
   53400    291.65356   -1361.3658    389.03667    332.58597   -314.91813    38946.042 
   53500    294.06655   -1329.6174    404.74201    390.83599    436.31664    38946.042 
   53600    297.47079   -1381.4196    399.60609    349.12904    367.77659    38946.042 
   53700    304.88184    -1357.388    415.99986    422.71297    467.45272    38946.042 
   53800    294.64184   -1340.7146    403.61576    381.18645    165.66713    38946.042 
   53900    306.13355   -1339.2569    407.93492    438.37949    717.48203    38946.042 
   54000    298.58334   -1389.3416    419.77723    366.35602    545.46516    38946.042 
   54100     302.9805   -1371.9857    402.13689    385.74533    390.40292    38946.042 
   54200    316.71449   -1344.1154    385.95698    458.88429    388.53037    38946.042 
   54300    300.97619   -1336.6221     422.8501    432.85444    21.823431    38946.042 
   54400     308.4147   -1355.5736    413.52264    437.85686    413.52311    38946.042 
   54500    302.69843   -1392.2725    401.06673     363.1263     812.5303    38946.042 
   54600    296.47326   -1438.1236    427.26576    315.62166    608.20314    38946.042 
   54700    291.71925   -1384.9056    404.17405    324.47755    250.08929    38946.042 
   54800    297.50694   -1392.6771    397.19749    335.62468    212.86641    38946.042 
   54900    296.19637   -1380.7754    413.58868    358.05388    487.36921    38946.042 
   55000    294.34275   -1418.3977    419.97433     318.5238    449.23995    38946.042 
   55100     303.8297   -1387.9291    410.65881    382.12334    459.26073    38946.042 
   55200    301.71463   -1400.7746     394.8985    344.05422   -154.09214    38946.042 
   55300     298.9771   -1400.3154    415.27503    352.64175   -49.632354    38946.042 
   55400    304.10996   -1427.8416    415.83563    348.64159    262.69275    38946.042 
   55500    292.10446   -1418.0412      420.861     309.7524    855.97295    38946.042 
   55600    303.56574    -1384.962    435.86515    409.11574    751.60863    38946.042 
   55700    295.86989   -1399.5515    423.71919    347.94752    821.85898    38946.042 
   55800    290.40476   -1369.6987    415.17255    344.80159     358.7694    38946.042 
   55900    302.27292   -1380.9331    422.34353    393.83869    212.34124    38946.042 
   56000     292.8812   -1363.7433    410.82168    357.48628    517.61763    38946.042 
   56100    293.16687   -1348.0742    400.75254     364.3643  -0.54146277    38946.042 
   56200    288.79114   -1339.6665    432.14655    384.58824    198.51655    38946.042 
   56300    297.31737   -1386.7543     419.7719    363.27371   -3.0155855    38946.042 
   56400    300.95559    -1370.387    398.25348    374.40078    108.76271    38946.042 
   56500    292.94528   -1341.0092    396.84643    366.53176   -402.89106    38946.042 
   56600    305.08629   -1378.0353     427.2216    414.20218    160.15906    38946.042 
   56700    297.90544   -1375.7068    417.26515    374.44564    122.69817    38946.042 
   56800    291.49338   -1344.1673    428.54624    388.57743    176.93731    38946.042 
   56900    301.67975   -1345.2482    416.39585    420.92196   -554.25531    38946.042 
   57000    294.50417   -1357.7158    400.35524    360.30879     79.51668    38946.042 
   57100    306.25346   -1382.5419    432.88527    420.58138   -100.43292    38946.042 
   57200     298.1696    -1387.037    397.63005    344.66229    325.23944    38946.042 
   57300    304.69763   -1372.7784    415.75765    406.25618    142.82169    38946.042 
   57400    307.02233   -1334.8058    424.44095    463.31318    205.32199    38946.042 
   57500    293.24594   -1316.5624    419.92742    415.40475    379.82416    38946.042 
   57600    301.92424   -1343.6635    407.40845    414.61316    293.14039    38946.042 
   57700    304.03194   -1341.7035    412.80956    431.40447   -242.10275    38946.042 
   57800    290.66641    -1325.914    394.43572    369.02016    560.13947    38946.042 
   57900    304.87597   -1359.3244    426.75815    431.50856    409.02445    38946.042 
   58000    297.00535   -1330.7953    459.90085    457.96569    670.88429    38946.042 
   58100    306.91509   -1333.9349    410.59457    449.85787    819.90374    38946.042 
   58200    294.98266   -1325.6857    431.99515    426.11964    474.24484    38946.042 
   58300    303.06918   -1321.5857    404.48214    438.88735    383.44445    38946.042 
   58400    303.10257   -1306.2806    426.53936    476.39897    163.93886    38946.042 
   58500     288.6913   -1340.3358    414.91628    366.24187   -52.434403    38946.042 
   58600    306.21641   -1336.6974    432.38267    465.75745   -139.30829    38946.042 
   58700    303.81531   -1320.2721    406.57981    445.63698    71.671103    38946.042 
   58800    298.80461   -1380.1439    405.13669    361.90317    198.13235    38946.042 
   58900    309.36854   -1389.2494    417.67785    412.60391    251.02912    38946.042 
   59000    297.74989   -1381.8859    407.61406    357.91952   -81.324673    38946.042 
   59100    296.61858     -1425.03    421.43503    323.53469    283.85327    38946.042 
   59200    309.67682   -1398.0512    404.99257    392.49612    518.40548    38946.042 
   59300    294.23446   -1391.7205    408.21462    332.95678    380.60852    38946.042 
   59400    299.33446   -1404.4049    403.51161    338.38775    833.63328    38946.042 
   59500    296.46702   -1397.9456     398.1753     326.6812    550.93767    38946.042 
   59600    304.99381   -1393.9662    406.38223    377.01804    742.00478    38946.042 
   59700    291.98483   -1407.8429    412.12192    310.67634    495.94922    38946.042 
   59800    308.96487   -1375.9869    451.16345    457.54583    511.67971    38946.042 
   59900     305.8545    -1362.598    413.32892    419.18382    421.65347    38946.042 
   60000    301.78826   -1372.9795     426.5833    403.86362    689.22317    38946.042 
   60100    304.29975   -1361.8375    418.22863    417.88787    448.23981    38946.042 
   60200     288.2891   -1379.2436    430.87096    341.48928    624.04357    38946.042 
   60300    290.80171   -1388.2594    395.36172    308.20611    672.99634    38946.042 
   60400    290.94172   -1409.5215    430.43396    322.64273    928.11042    38946.042 
   60500    317.45844   -1448.5386    441.42762    413.26029    445.48013    38946.042 
   60600    302.37283   -1434.4381    405.55483    323.99201     398.6993    38946.042 
   60700     303.1719   -1397.9529    442.77674    401.27434     281.7184    38946.042 
   60800    295.14925   -1383.2069    411.25667    348.60534    240.76646    38946.042 
   60900    299.53787   -1350.1099    430.33509    420.41635    211.81952    38946.042 
   61000    307.71956   -1343.2944    435.19015     468.6933    197.24049    38946.042 
   61100    297.26747   -1357.0249    414.46777    387.47573     224.1793    38946.042 
   61200    303.58069   -1364.1374     411.6247    405.76675    359.24538    38946.042 
   61300    300.58559   -1353.5114    433.44705    424.81447   -152.20212    38946.042 
   61400    295.07059   -1377.4263    422.90274    365.68003   -145.81768    38946.042 
   61500    305.18938   -1351.5274    427.90224     441.8519    356.86065    38946.042 
   61600    304.27776   -1366.0239     434.6811    430.05555   -68.301535    38946.042 
   61700    305.08978   -1379.1178    446.94809     432.8617    25.330432    38946.042 
   61800    292.70434   -1402.3691    401.04656    308.29405     305.8323    38946.042 
   61900     296.2051   -1390.2165     432.4214    367.48458    74.095887    38946.042 
   62000    300.59099   -1382.4932    449.53116    411.94092   -218.42974    38946.042 
   62100    289.36631    -1377.985    424.90585    341.60238   -351.40477    38946.042 
   62200    294.89145   -1387.5304    422.35389    354.22564   -218.93931    38946.042 
   62300      302.765   -1355.0317    454.27075    453.86903    119.52642    38946.042 
   62400    298.79713   -1379.5609    436.70585    394.02184   -269.65189    38946.042 
   62500    302.04714   -1339.3143    415.65066    427.75439    154.32621    38946.042 
   62600    309.09606   -1350.5205    430.73394    463.16971    298.37307    38946.042 
   62700    292.57293   -1372.3403     414.7783     351.4666    132.00155    38946.042 
   62800    295.70986   -1339.7533     428.2655    411.57603    726.91829    38946.042 
   62900    294.69182   -1353.9232     448.1564    412.74209    541.78583    38946.042 
   63000    313.97437   -1348.5312    427.63835    483.89005    502.91162    38946.042 
   63100    298.01297   -1347.2311    456.29289    442.43022    425.17606    38946.042 
   63200    304.72846   -1308.5951    424.66568    479.48543    78.939884    38946.042 
   63300    301.46067     -1317.31    435.97592    467.45998    380.35822    38946.042 
   63400    296.16489   -1379.3249    423.83145    369.60629    236.83495    38946.042 
   63500    299.97229   -1375.5109    410.21369    376.83758   -68.640785    38946.042 
   63600    301.27763   -1386.3043     423.8266    385.49739    378.49757    38946.042 
   63700    307.09918   -1436.0157    436.02038    374.02654    151.10242    38946.042 
   63800    293.31945   -1398.9912    439.10996    352.48741   -12.361622    38946.042 
   63900    300.33177   -1389.8949    414.82056    368.66885    67.164812    38946.042 
   64000    299.96294   -1417.5493    411.71714    336.26079    -256.6145    38946.042 
   64100    296.84684   -1350.0378    444.49534    422.60846   -311.07466    38946.042 
   64200    293.64787   -1385.9419    432.71044    360.60658   -94.692026    38946.042 
   64300    301.95067   -1400.5572    417.60368     368.0329   -823.73718    38946.042 
   64400    296.17305   -1405.9493    413.53006    332.71703   -354.99465    38946.042 
   64500    304.51704   -1387.5628    426.88294    401.78906   -235.91735    38946.042 
   64600     302.5574   -1357.3092    439.45122    435.84307   -331.00201    38946.042 
   64700    300.07152   -1378.9183    425.83321    389.49364   -246.37151    38946.042 
   64800    303.90222   -1386.0766    421.71136    395.35285    198.20464    38946.042 
   64900    293.81451   -1370.8792    434.69212    378.39657    273.36229    38946.042 
   65000    309.99872   -1422.6556     421.2105    385.54993   -86.829754    38946.042 
   65100    294.81978   -1438.7885    422.92483    303.21776   -114.08877    38946.042 
   65200    291.84005   -1379.9445    422.49106    348.29607   -328.82031    38946.042 
   65300    298.42382   -1368.8374    433.15237    399.52166    -392.3752    38946.042 
   65400    295.56211   -1378.8284    448.15117    391.72555    610.18164    38946.042 
   65500    287.18993   -1368.8622    417.70051    333.78235    -226.5863    38946.042 
   65600    306.41398   -1394.4218     429.1299    405.66423    19.295267    38946.042 
   65700    300.88726   -1434.8957    451.78128    363.11414   -94.673514    38946.042 
   65800    315.41799   -1456.0624    429.89618    385.07568    344.75021    38946.042 
   65900    302.30856   -1429.3014     434.1793    357.46567   -71.272906    38946.042 
   66000    299.75085    -1417.501    456.50655    380.14958     319.7728    38946.042 
   66100    298.98041    -1404.117    449.76861    383.34853    698.90456    38946.042 
   66200    308.70354   -1440.3211     432.1036     372.9826    487.24896    38946.042 
   66300    289.52908   -1405.0851    440.43348    330.75822    76.610236    38946.042 
   66400    300.32361   -1406.6545    433.91798    370.97018   -334.59397    38946.042 
   66500    300.86672   -1421.3045    463.04149    387.87361   -122.98862    38946.042 
   66600    291.40808   -1405.8257    432.68024     330.6714  -0.51452758    38946.042 
   66700    307.18536   -1424.3434    435.29185    385.35592     234.2003    38946.042 
   66800    304.74346   -1424.1769    410.91338    350.21843   -121.13061    38946.042 
   66900    291.26523   -1444.1456    424.42865    283.46069   -11.005774    38946.042 
   67000    301.32222   -1455.4221    420.90494    313.65744   -37.927395    38946.042 
   67100    305.83557   -1416.4709    425.38316    377.28053    280.57804    38946.042 
   67200    290.13987   -1397.7942    437.78364    338.13211   -428.82166    38946.042 
   67300    292.73559   -1374.9794    447.07285    381.84978   -189.04464    38946.042 
   67400    302.46776   -1398.3522    453.59616    408.54402   -20.296001    38946.042 
   67500    293.68148   -1451.4619    453.37196    315.89852   -193.93366    38946.042 
   67600    300.44255   -1420.4895    425.50202     349.2513    6.6412054    38946.042 
   67700    298.34179   -1390.6155    438.33884     382.5629   -200.65098    38946.042 
   67800     289.6113   -1416.5902    435.43759    314.62509   -24.092852    38946.042 
   67900     302.0814   -1427.6128    406.55461    330.51322    290.61644    38946.042 
   68000    311.58355   -1444.9998    436.83299    385.91903     240.0378    38946.042 
   68100    292.12345   -1463.8664    443.29095    286.44211   -57.047532    38946.042 
   68200    307.64897   -1476.8397    415.72995    315.37197    390.82561    38946.042 
   68300    296.57529   -1407.1716    434.73987    354.50424    503.64403    38946.042 
   68400    298.19489   -1462.7074    432.03201    303.50689    448.64811    38946.042 
   68500    297.97258   -1437.6827    412.98254    308.48756    14.299705    38946.042 
   68600    303.22684   -1398.1993    443.43431    401.93128    323.45871    38946.042 
   68700    298.85581   -1431.1776    431.59217    337.55402    188.19355    38946.042 
   68800    308.35988   -1418.4063    423.06877    384.32498   -25.043009    38946.042 
   68900    306.31232   -1373.8964    424.90008    421.50502     338.0349    38946.042 
   69000    299.55654    -1411.089    450.80942    379.99509    169.26582    38946.042 
   69100    308.67426   -1425.1993    416.15591     372.0257   -126.71064    38946.042 
   69200    295.31147   -1392.7671     433.6365    362.15077    500.20642    38946.042 
   69300     298.2866   -1422.5963    399.42968    311.42605    611.54651    38946.042 
   69400    295.37833   -1421.3487    447.42051    347.65225    881.87759    38946.042 
   69500    296.56544   -1430.5653    413.43163     309.7582    228.34221    38946.042 
   69600    313.70216   -1425.0036    444.47498    423.03633    307.22118    38946.042 
   69700     299.9207   -1428.0742    444.64893    358.47872   -59.901118    38946.042 
   69800    294.41968   -1401.3875    433.12562    349.02944    -165.8114    38946.042 
   69900    306.39519   -1407.9256     427.1422    390.08866    16.485959    38946.042 
   70000    305.77491   -1442.7071    413.80853    339.19833    164.17616    38946.042 
   70100    292.81464   -1453.4399    423.42029    280.09046   -55.592917    38946.042 
   70200    305.42981   -1436.4514    435.62082    365.72225    148.59063    38946.042 
   70300    300.77063    -1466.073    427.79474     307.4284   -192.96536    38946.042 
   70400    304.34334   -1458.0693    432.60915    336.23164   -259.13613    38946.042 
   70500    311.13113     -1453.24    439.21383     378.0354   -559.55232    38946.042 
   70600      296.287   -1433.5092    421.11299    313.24991    129.64639    38946.042 
   70700    313.19928   -1438.5504     427.5112    390.27577    264.94721    38946.042 
   70800    292.04201   -1484.8638    419.79394    241.58328    29.806301    38946.042 
   70900    305.77717   -1478.6218    438.79628    328.28142    585.61555    38946.042 
   71000    293.43844   -1432.7332    436.08448    316.25236    564.03347    38946.042 
   71100    295.34926   -1416.3942    431.21803    336.27431   -56.176538    38946.042 
   71200    288.98455   -1454.3755    423.38682     261.9848   -101.62332    38946.042 
   71300    305.75626   -1436.3311    420.34684    352.02917    -598.9358    38946.042 
   71400    309.44904   -1444.2398    443.95292    384.24876    -150.0512    38946.042 
   71500    295.28326   -1391.7497    439.16113    368.56656   -305.59453    38946.042 
   71600    302.11053   -1377.9738    437.32582     411.0537   -431.34196    38946.042 
   71700     304.5042    -1381.573    449.14245    429.98086   -157.37744    38946.042 
   71800    291.73639   -1390.3921    428.38579    343.27942   -225.31687    38946.042 
   71900    303.65219    -1404.083      425.529    380.04538   -301.27447    38946.042 
   72000    297.23446   -1408.2272    436.53597    358.19401   -362.97649    38946.042 
   72100    304.94946   -1406.2831    418.28404     376.4046    76.724908    38946.042 
   72200    301.29114   -1396.5561      443.858    395.33749    230.40317    38946.042 
   72300    301.73449   -1388.6902     455.1828    416.51177    -28.37587    38946.042 
   72400    313.74811   -1433.5523    447.97678    418.19502   -213.46638    38946.042 
   72500    294.12155   -1421.8308    413.53338    307.65994   -703.09033    38946.042 
   72600    292.70522   -1425.8988     428.9836    312.70524    -1207.844    38946.042 
   72700    309.66018   -1401.4882    417.21499    401.20712   -317.84913    38946.042 
   72800    285.75286   -1421.3531    428.55481      285.716   -203.34331    38946.042 
   72900    300.30098   -1426.9123     462.7099      379.403    174.52854    38946.042 
   73000    298.20683    -1403.265     440.6728    371.64353    696.66108    38946.042 
   73100      293.256   -1439.6377    418.74659    291.19368    30.209827    38946.042 
   73200    312.95251   -1417.1949    418.34517    401.36114   -372.65495    38946.042 
   73300    290.38803   -1404.1707    435.19458    330.27676   -404.18006    38946.042 
   73400     311.8698   -1434.1692    434.94978    396.14721    32.012597    38946.042 
   73500    290.64059   -1417.9471    425.27037    307.70615   -130.42723    38946.042 
   73600    295.10116   -1393.8471    440.85908    367.35236   -280.44706    38946.042 
   73700    303.65228   -1428.8241    450.72205    380.49779   -215.97632    38946.042 
   73800    299.94053   -1428.3072    409.30433    322.98978    162.97981    38946.042 
   73900    299.54633   -1456.4757     421.8932    305.64641   -294.24053    38946.042 
   74000    302.47181   -1419.9694    431.89857    365.24729   -68.888638    38946.042 
   74100    305.54288    -1447.542    433.80146    353.31814    435.43703    38946.042 
   74200    304.29424   -1375.4209     463.1291    449.18021    315.20537    38946.042 
   74300    307.80789   -1386.3902    428.81097    419.61359    475.11227    38946.042 
   74400    299.50519   -1404.6782    449.56239    384.92905    607.76362    38946.042 
   74500    303.84625   -1397.3259    449.85077    411.99256    564.61223    38946.042 
   74600    293.76384   -1394.0841    414.05011    334.32291    146.25656    38946.042 
   74700    300.28074   -1369.9326    451.36948    424.95176    716.55902    38946.042 
   74800    304.90875   -1437.7355    430.66703    357.15298    151.19376    38946.042 
   74900    306.70473   -1415.2205    474.26499    431.30158    177.97211    38946.042 
   75000    293.29539   -1395.1839     426.7032     343.7803   -239.00718    38946.042 
   75100     299.4077   -1384.8769    444.52912    399.26094   -45.139454    38946.042 
   75200    296.34619   -1388.8392    444.44183    381.51357     22.53683    38946.042 
   75300    304.79198   -1416.5266    434.14498    381.31737   -136.09478    38946.042 
   75400    315.65294   -1438.4947    454.08611    427.88448   -200.36772    38946.042 
   75500    295.35123   -1379.1416    445.96229    388.27993    27.355655    38946.042 
   75600    288.85531   -1352.7483    433.58863    373.23555   -251.83917    38946.042 
   75700    289.87119   -1394.6772    444.66381    346.92712   -115.13416    38946.042 
   75800     300.9679   -1390.4281    438.99663    395.15783   -269.64956    38946.042 
   75900     302.9013    -1360.775    436.84223    431.30696    234.00336    38946.042 
   76000    295.21633   -1351.4658     463.9314     433.3213     41.01142    38946.042 
   76100    310.90308   -1384.0604    457.17739    464.15829   -322.28756    38946.042 
   76200    302.91902   -1412.0316    446.74138    390.02885   -382.45886    38946.042 
   76300     305.0011   -1438.0255    451.58916    378.19827   -271.23075    38946.042 
   76400    309.17379   -1461.9299    475.41842    396.79264     89.77167    38946.042 
   76500    279.16707   -1400.8671     448.1428     296.3239   -21.008634    38946.042 
   76600    294.43346   -1423.9368     430.3894    323.80556    54.160362    38946.042 
   76700    302.67927   -1448.5593     445.5013    351.18831    -257.3854    38946.042 
   76800    308.76473   -1449.1549    437.28701    369.60601   -165.42437    38946.042 
   76900    294.10835   -1420.7284    470.77592    365.94591   -719.85006    38946.042 
   77000    303.58145   -1428.3904    430.98384    360.87636   -225.42275    38946.042 
   77100    290.76476   -1445.0387    428.23354    284.13336   -209.53492    38946.042 
   77200    308.26375   -1466.1659     439.4909    352.55735   -205.52435    38946.042 
   77300    292.05054   -1446.1504     446.8494    307.39033    76.584396    38946.042 
   77400    293.64428   -1485.1033    430.12514    258.84391    46.519299    38946.042 
   77500    303.51845   -1457.6433    427.88685     328.2445    57.156755    38946.042 
   77600    292.58945   -1446.7866    446.42215    308.73801   -338.76576    38946.042 
   77700    293.35352   -1431.6794    432.68361    313.52527   -98.128708    38946.042 
   77800    301.59053   -1445.2839    448.91384    353.00508   -602.29537    38946.042 
   77900    286.36121   -1481.7309    435.29914    234.80433   -717.07891    38946.042 
   78000    300.25645   -1478.8157    445.22839    309.81881   -240.83401    38946.042 
   78100    300.61628   -1448.6906    451.53322    347.85877   -256.42332    38946.042 
   78200    298.82959   -1414.3818    467.54787    390.18818   -391.76676    38946.042 
   78300    297.75586   -1449.6645    456.21585    338.76934   -137.37898    38946.042 
   78400    304.38597    -1443.781    449.94819    368.04967   -199.41936    38946.042 
   78500    292.89111   -1414.3379    443.23338    339.34768    -296.2161    38946.042 
   78600    303.99122   -1431.8317     438.1006    366.38511   -40.690999    38946.042 
   78700    305.49111   -1392.9696    448.63116    422.48865    128.54221    38946.042 
   78800     290.0656   -1447.8637     446.5404    296.48706   -156.43398    38946.042 
   78900    297.50754   -1453.4921    459.19891    336.81379   -330.68541    38946.042 
   79000    292.51774   -1460.8929    432.74077    280.62949   -267.82679    38946.042 
   79100    299.02977     -1431.02     469.1611    376.05885   0.31222091    38946.042 
   79200    291.32602   -1418.9569    445.39052    329.88329   -137.63993    38946.042 
   79300    296.34556   -1452.4608    429.57127    303.01859   -358.48171    38946.042 
   79400    299.67274   -1420.8543    449.60479    369.54507   -137.74928    38946.042 
   79500    300.96144   -1405.3998    450.03357    391.19421    -190.6204    38946.042 
   79600    288.07297   -1391.4019    436.44312    333.93611   -459.60109    38946.042 
   79700    303.45555   -1441.2083    464.70958    381.22083   -62.865518    38946.042 
   79800    293.80397   -1433.8617    453.32148    333.99633   -265.06456    38946.042 
   79900    289.36935   -1423.9582     456.3873    327.12428    126.12132    38946.042 
   80000    297.78388   -1399.2326    461.81463     394.9254     3.919446    38946.042 
   80100    307.34524   -1379.1057     468.2819    464.29901   -113.87405    38946.042 
   80200    294.32643   -1381.7127    455.17537    390.33672   -383.82201    38946.042 
   80300    292.59982   -1442.5256    445.45287    312.07618   -269.29188    38946.042 
   80400    304.63388   -1445.2264    438.25954    356.02473   -794.40362    38946.042 
   80500    294.39353    -1419.946    447.81314    345.04143   -372.78691    38946.042 
   80600    301.93614   -1412.1708    444.06397    382.81461   -506.27094    38946.042 
   80700    296.07047    -1414.783    460.32553    370.21988   -194.60723    38946.042 
   80800    288.00633   -1457.7081    422.07197    252.96063    396.67262    38946.042 
   80900    297.15061   -1430.3194    437.14173    336.33235   -63.993458    38946.042 
   81000    306.90457    -1408.753    450.29906    414.69724    105.04498    38946.042 
   81100    302.79785   -1410.8857    429.50328    373.39451   -5.5966739    38946.042 
   81200    292.24723   -1415.4371    468.78375    360.91801    295.62966    38946.042 
   81300    304.59175   -1405.0323    456.17347    413.94432    39.774133    38946.042 
   81400    305.20736   -1450.8587    433.01965    347.71846    256.46086    38946.042 
   81500     312.0369   -1460.3796    444.99654    380.73109    76.100315    38946.042 
   81600    287.47727   -1476.7894    450.92615    260.36634   -288.81771    38946.042 
   81700    299.32486   -1438.5514    442.34999     343.0366   -197.66541    38946.042 
   81800    287.89572   -1433.7238    433.98922    288.36727   -202.18008    38946.042 
   81900    306.49409   -1456.2426    469.94269    385.01472   -211.09381    38946.042 
   82000    302.00892   -1384.2101    442.42454    409.46155   -134.27228    38946.042 
   82100     305.9197   -1393.1789    463.42997    438.99572   -86.801326    38946.042 
   82200    296.87117   -1385.9968     450.6813    392.94427    119.07605    38946.042 
   82300    296.86297   -1408.5618    439.05955    358.72079    120.78263    38946.042 
   82400    299.56298   -1382.2588     443.5165    401.56117    329.77101    38946.042 
   82500    293.97427   -1378.6562    438.37093    375.01322   -14.230847    38946.042 
   82600    299.08649   -1377.9362    443.14059    403.37595   -363.06604    38946.042 
   82700    287.44683   -1413.7133    468.15052    340.53069    -311.0777    38946.042 
   82800    292.90927   -1386.6937    422.56415    346.40389    27.249553    38946.042 
   82900    290.50915   -1386.5892    457.79883    371.00444    56.359788    38946.042 
   83000    302.67116   -1374.4142    448.74459    428.54049   -95.494715    38946.042 
   83100     302.1328    -1384.227    481.02911    448.60346   -239.05434    38946.042 
   83200    307.39079   -1434.9767    469.26013    409.61001   -209.23853    38946.042 
   83300    302.61173   -1410.5185     445.5095    388.93514    -535.0187    38946.042 
   83400    287.01287   -1412.9229    443.67502    314.90394   -78.331172    38946.042 
   83500    297.65304   -1423.0309     462.6641     371.3912   -210.69902    38946.042 
   83600    293.09811   -1449.7415      424.502    286.13883     75.36862    38946.042 
   83700    305.75738     -1425.36    458.78432    401.44269    243.97852    38946.042 
   83800    314.03876   -1409.3375    459.40391    455.13727    203.29039    38946.042 
   83900    293.45112   -1445.5846    431.12737    298.50058    5.2674059    38946.042 
   84000    298.00889   -1442.5182    441.30273    332.13472   -271.98195    38946.042 
   84100    285.14779   -1474.3245    451.77658    253.25918    43.110242    38946.042 
   84200    303.05964   -1451.9539    437.73368    341.72797   -108.16177    38946.042 
   84300    291.02502   -1472.0475    450.48265    280.53805   -432.05212    38946.042 
   84400    287.50988   -1481.4694    450.95071    255.85689    268.64758    38946.042 
   84500    305.26068    -1454.754    444.10002    355.14211   -293.87806    38946.042 
   84600     303.4538   -1433.0781    427.27088    351.90457   -578.01368    38946.042 
   84700    297.93113   -1465.2648    437.23013    304.96759   -266.28076    38946.042 
   84800    293.99067   -1466.5765    432.45545    281.25078   -569.50233    38946.042 
   84900    312.62249   -1431.1888    431.90448       399.45   -481.20262    38946.042 
   85000    291.59679   -1461.6296    468.47283    311.50437    107.54588    38946.042 
   85100    302.22393    -1427.289    469.27911    394.19917    136.41659    38946.042 
   85200    297.30072   -1439.8684    453.58213    343.89533    364.83046    38946.042 
   85300    299.08193   -1438.8343    457.57673    356.89361   -143.74711    38946.042 
   85400    302.97478    -1460.074    446.95753    342.45201    365.49806    38946.042 
   85500    303.30438   -1426.4763    421.82012    352.38706     107.2587    38946.042 
   85600    302.84021   -1460.8225    481.12627    375.27016    525.26701    38946.042 
   85700    304.91222   -1432.8983    461.09034    392.42906    883.27549    38946.042 
   85800    304.97752   -1459.1168    461.31199    366.72436    478.78446    38946.042 
   85900    302.16224   -1466.6266    437.05518    322.36163    686.54307    38946.042 
   86000     294.0782    -1428.929    456.11035    342.94481     242.8471    38946.042 
   86100    300.65698   -1442.1545    460.72494    363.76866     347.2529    38946.042 
   86200    310.39511    -1464.656    464.17072    388.28323   -145.68567    38946.042 
   86300    298.80629   -1485.1164    449.11858    300.92009    -167.0583    38946.042 
   86400     304.6804   -1472.7256    451.08121    341.55543    -162.6694    38946.042 
   86500    295.32404   -1458.4125    465.32233    328.24746   -393.62073    38946.042 
   86600    284.54953    -1496.335    436.59491    213.39028   -397.11081    38946.042 
   86700     297.3149   -1482.7002    468.69318    316.23812   -930.86792    38946.042 
   86800    297.98734   -1486.7493    443.14015    289.64454    141.18313    38946.042 
   86900    297.43699   -1510.8219    444.66271    264.63212    277.80025    38946.042 
   87000    296.82599   -1488.5705    444.06892    283.55603   -135.55623    38946.042 
   87100    304.54727   -1458.3002    450.80782    355.11176    71.121001    38946.042 
   87200    307.52087   -1457.2018    456.75876    375.46562   -584.08766    38946.042 
   87300    314.49191   -1468.5885    447.95598    386.46584   -401.31844    38946.042 
   87400    291.26233   -1444.4132    470.13185    328.88338    189.17047    38946.042 
   87500    303.62791   -1445.1258    437.81291    351.17785   -17.561914    38946.042 
   87600    295.99317   -1467.8624    455.25031    311.71933   -93.403906    38946.042 
   87700    299.11262   -1459.8851    433.75521    312.15857    48.498232    38946.042 
   87800    305.58769   -1470.7201    454.97573    351.51483    204.58099    38946.042 
   87900    305.59397   -1474.0324    439.04233    332.29716   -48.298168    38946.042 
   88000    295.25923   -1480.4538    418.05329    258.64717    443.60292    38946.042 
   88100    301.15748    -1498.744    470.30334    318.99694    260.20798    38946.042 
   88200    296.33225   -1484.9294    428.44736    269.36653    262.34416    38946.042 
   88300    302.32682   -1471.3964    433.51639    314.78943    518.74256    38946.042 
   88400    295.02894   -1540.2127    454.28576    234.09031   -249.77534    38946.042 
   88500     290.4519   -1503.7683       432.15    227.92043   -385.08522    38946.042 
   88600    304.81053   -1489.2985     434.3278    308.81135   -49.941724    38946.042 
   88700    301.82994   -1508.5625    434.22163    276.10543    16.715705    38946.042 
   88800    301.93757   -1498.8345    436.82489    288.91821   -53.225038    38946.042 
   88900    310.78859   -1458.5418    459.64356    391.63074   -784.73862    38946.042 
   89000    292.83488   -1489.8206     439.8159    260.19596   -327.01175    38946.042 
   89100     294.1572   -1502.2777    429.78083    243.62009    -372.4253    38946.042 
   89200    296.35355    -1465.234    442.27945     302.9893    -891.2415    38946.042 
   89300    295.90603   -1477.2434    434.42427    281.12238   -681.12205    38946.042 
   89400    306.10859   -1474.0173    410.98925    306.56172   -301.29367    38946.042 
   89500     305.3565   -1456.4105    450.76026     360.5746   -567.16588    38946.042 
   89600    295.27427   -1420.4156    460.42893    361.12822   -2.1425558    38946.042 
   89700    294.22294   -1455.3524    450.95808    312.01677   -214.56902    38946.042 
   89800     298.6232   -1392.3568    459.22692    402.96875   -388.10285    38946.042 
   89900    295.75659   -1418.7683    463.06289     367.5675   -325.48187    38946.042 
   90000    298.61164   -1422.0415     456.1398    370.14523   -463.90894    38946.042 
   90100    288.18446   -1423.0608    463.92741    330.26032    14.011446    38946.042 
   90200    302.57626   -1467.8497    447.48002    333.41575    114.20642    38946.042 
   90300    304.11804   -1457.9846    452.07783    354.77692    310.91674    38946.042 
   90400     306.4349   -1476.2718        452.3    347.07803    736.77685    38946.042 
   90500     300.0324   -1452.2923    451.27252    341.38394    285.34529    38946.042 
   90600    303.72894   -1451.1731    470.83283    378.60254    42.965625    38946.042 
   90700    299.73894   -1402.0608    450.00027     389.0302    435.46926    38946.042 
   90800    295.91685   -1423.4625    464.86201    365.38945    90.111819    38946.042 
   90900    291.54589   -1447.3937    456.31492     313.3546    -136.6102    38946.042 
   91000    303.35778   -1438.7769    444.40435    362.90959    207.96536    38946.042 
   91100    294.52672   -1453.1214    439.55182    304.20067    303.99108    38946.042 
[...]
  984600    296.27777   -1538.1941    472.58308    259.99375    565.78021    38946.042 
  984700    304.80219   -1559.8284    497.43456    301.35086     726.1492    38946.042 
  984800    306.37392   -1550.8362    465.51747    285.45823    580.07116    38946.042 
  984900    301.66713   -1556.0261    472.05143    265.74317    833.27614    38946.042 
  985000     302.1806   -1536.8436    479.98786    295.15948    183.01151    38946.042 
  985100    295.18038   -1538.8954    453.97703    235.77648   -190.86543    38946.042 
  985200    304.30403   -1568.9949    474.53696    267.05794    35.050059    38946.042 
  985300    302.22418   -1531.2318    476.27338    297.25171   -149.14829    38946.042 
  985400    301.24752   -1508.3375    506.23634     345.7393    158.74317    38946.042 
  985500    300.42434   -1562.5946    468.25078     249.8135    487.78649    38946.042 
  985600    301.97116   -1529.1796    465.69259    287.59112     641.2861    38946.042 
  985700    299.03055     -1560.49    497.71896    275.15025    547.94518    38946.042 
  985800    305.33814   -1557.5355    469.12025    277.72744    421.68623    38946.042 
  985900     311.5149   -1519.7994    495.82393     369.8032    300.44165    38946.042 
  986000    298.81299   -1536.8621    482.03713    282.12286   -188.60997    38946.042 
  986100    298.73828   -1572.6642    473.26734    237.21669    180.26215    38946.042 
  986200    297.06518   -1555.5168    483.28413    256.89513   -222.31847    38946.042 
  986300    307.28692   -1502.2671    495.23525    367.82999    93.004401    38946.042 
  986400    300.31608   -1505.6053    507.54107    345.60873   -238.81493    38946.042 
  986500    294.47209   -1549.4378    481.39399      249.482    196.27986    38946.042 
  986600    289.40054   -1550.3515    488.65924    233.14244    38.130092    38946.042 
  986700    300.52979   -1507.8825    492.42361    329.17023    269.73497    38946.042 
  986800    298.26547   -1501.8422    473.32628    305.98217    170.26711    38946.042 
  986900    302.23392   -1554.4905    486.52902    284.29231    577.79025    38946.042 
  987000    299.52054   -1536.6286    506.37896    309.86392    199.79458    38946.042 
  987100    300.39378   -1560.7961    467.22545    250.44996    171.45863    38946.042 
  987200     290.8125   -1567.5127    476.47702     210.1164    263.94204    38946.042 
  987300     290.6753    -1576.252    471.63824    195.92448     -192.604    38946.042 
  987400    306.47609    -1550.559    466.29018    286.96523   -310.77902    38946.042 
  987500    301.83191   -1550.6767    470.25323     270.0316   -307.04075    38946.042 
  987600    297.63294   -1540.8925    463.52045    254.29597   -403.08186    38946.042 
  987700    301.20635   -1539.2931    504.70268    313.06574    94.041651    38946.042 
  987800    312.68196   -1532.6091    497.60452    363.99571    428.65339    38946.042 
  987900    301.15068   -1538.1382    511.12211    320.39103    360.89299    38946.042 
  988000    292.40287   -1511.9143    470.61703    266.97047   -99.030008    38946.042 
  988100    311.94013   -1489.8917    491.61044    397.40001    70.036784    38946.042 
  988200    294.33393   -1494.1608    477.89657    300.64348   -84.291746    38946.042 
  988300    304.74341   -1509.7349    489.69467    343.44153    236.87928    38946.042 
  988400    292.41932   -1548.5266    460.51383    220.32855    311.07918    38946.042 
  988500    294.10463   -1509.9116    502.27694    308.24704    245.34765    38946.042 
  988600    299.55034   -1538.5578    481.52509    283.21413    254.41304    38946.042 
  988700    311.22489   -1535.4193    480.18982    337.25166    81.235304    38946.042 
  988800    304.71476   -1544.1276    473.03133    292.25729    782.60162    38946.042 
  988900    305.20104   -1515.5561    483.32467    333.29786    -122.9908    38946.042 
  989000    306.28427   -1512.8057    481.37387    338.94399   -141.10532    38946.042 
  989100    316.80187   -1573.9871    453.13781    296.58439   -193.80316    38946.042 
  989200    303.77002   -1512.7028    486.34264    332.76639    107.68662    38946.042 
  989300    304.54863   -1506.8639    523.33407    379.08038   -341.12304    38946.042 
  989400    307.19505   -1515.7907    440.09793    298.75806   -514.08684    38946.042 
  989500    301.39279   -1471.4594    502.34099    379.37197   -276.24786    38946.042 
  989600    298.68091    -1488.292    468.28653    316.35141    -890.9266    38946.042 
  989700    307.36485   -1471.5865    484.81578    388.43985   -36.601719    38946.042 
  989800    302.89351   -1513.7409    467.66868    309.13264    201.10098    38946.042 
  989900    295.27556   -1519.7735    509.41618    310.76331    402.89925    38946.042 
  990000    297.89298   -1542.5355    490.28597    280.58202    275.48433    38946.042 
  990100    311.52553   -1540.1107    490.67594    344.39146    388.49612    38946.042 
  990200    287.60264   -1541.1499    468.64792    214.28857    502.45329    38946.042 
  990300    302.96286   -1491.6888    477.88563      341.712    201.13767    38946.042 
  990400    290.45046   -1488.4391    512.36133     323.4545    391.99752    38946.042 
  990500    286.28127   -1456.2202    469.17708    293.83535      630.657    38946.042 
  990600     300.9418   -1465.4273    526.97408    408.01934    905.81251    38946.042 
  990700    300.07609   -1461.7746      488.614    369.43863     335.4871    38946.042 
  990800    300.80593   -1490.5215    486.05996    341.40315   -202.30811    38946.042 
  990900    303.10396   -1515.9531    481.18588    321.37929   -754.80645    38946.042 
  991000    299.23759   -1518.1969    485.95845    306.60918   -1325.9326    38946.042 
  991100     292.2825   -1503.3236    482.74083    287.14637   -911.83462    38946.042 
  991200    303.05943   -1505.6927    490.49852    340.75303   -82.240971    38946.042 
  991300    300.30549   -1439.9065    477.15836    380.87746   -293.50433    38946.042 
  991400    302.28922   -1461.0184    496.85548     388.3383   -550.81748    38946.042 
  991500    297.23751   -1513.2441    468.21047    284.86524    -603.0141    38946.042 
  991600    305.77278   -1524.4101    496.87969    340.55688    519.10679    38946.042 
  991700    301.75967   -1531.2169    490.74653    309.66152   -56.053309    38946.042 
  991800    302.16139   -1484.5072    490.36361    357.78565   -40.580909    38946.042 
  991900    313.40391   -1519.3668    503.83738    386.70108    578.19186    38946.042 
  992000    305.29811   -1497.9556    478.29288    346.30079    232.35816    38946.042 
  992100    300.05218   -1506.3716    460.45399    296.57465    52.086523    38946.042 
  992200    294.78459   -1527.4145    499.44458    290.95409    117.64907    38946.042 
  992300    293.05074   -1538.1807    459.97963    232.96532    114.61879    38946.042 
  992400    298.18721   -1529.9327     471.3973    275.61263    41.254841    38946.042 
  992500    307.02085   -1547.2538    468.66961    295.08724    89.860411    38946.042 
  992600    293.96955   -1514.9531     475.2104    275.53468    38.477752    38946.042 
  992700    289.10071    -1503.462    492.29105    282.32224     23.39352    38946.042 
  992800    307.19882   -1500.1085    492.11599    366.47516    505.37972    38946.042 
  992900    300.25943   -1510.6488    477.30486    310.07557     280.5155    38946.042 
  993000    305.97373   -1485.1776    499.89192    383.70068    173.46612    38946.042 
  993100    311.50764   -1438.1168    498.53672     454.1661     198.0379    38946.042 
  993200    304.35597   -1516.9911    469.31988    314.07703   -308.25027    38946.042 
  993300    300.31347   -1535.0603    480.43177    289.03274   -209.10089    38946.042 
  993400    302.07694   -1521.3783    482.03701    312.21013    102.93262    38946.042 
  993500    295.62058   -1515.7953    491.98607    298.85512    378.50031    38946.042 
  993600    308.40079   -1487.6095    487.69138     379.9274    52.964332    38946.042 
  993700    306.90753   -1498.7435    480.64387     355.0648   -290.22078    38946.042 
  993800    297.56816    -1447.328    472.60242     356.6526   -199.31149    38946.042 
  993900     302.6351    -1475.721    488.61372    366.94143    467.60088    38946.042 
  994000     297.2906   -1494.8136    475.33965    310.66241   -26.097913    38946.042 
  994100    307.17793   -1512.0036    470.52289    332.89347   -48.656869    38946.042 
  994200    304.49417   -1530.2945    479.17785    311.24991   -125.64661    38946.042 
  994300    294.03612   -1508.7825    456.00865    262.80138   -186.72345    38946.042 
  994400    304.15694   -1505.8208    491.61318     346.6501   -573.24386    38946.042 
  994500    306.22534   -1474.0269    502.33257    398.41782   -155.47798    38946.042 
  994600    297.21975   -1529.9499    480.49192     280.3614     394.1927    38946.042 
  994700     299.4537   -1472.3626    523.21681    390.66875    307.80304    38946.042 
  994800    285.58094   -1504.4989    435.44402    208.69019    148.25947    38946.042 
  994900    304.44507   -1531.1488    505.66054    336.65858    15.256444    38946.042 
  995000    290.45187   -1535.5309    439.19065    203.19832    407.68297    38946.042 
  995100    313.35439   -1554.6272    492.58477     339.9665    535.53962    38946.042 
  995200    296.73509   -1529.1804     488.4151    286.88558    204.37923    38946.042 
  995300    308.32781   -1541.9557    442.81171    280.37506    39.293806    38946.042 
  995400    302.13143   -1534.3856    472.86097    290.27058    92.907599    38946.042 
  995500    299.79825   -1549.3105    477.55926    269.60486    229.48968    38946.042 
  995600    315.17891     -1545.97    500.94096    365.14318     152.2207    38946.042 
  995700    309.31886   -1554.5774    453.20336    282.57916   -105.73481    38946.042 
  995800    303.03997   -1548.0741    503.84133    311.62741    175.44873    38946.042 
  995900    299.90276   -1559.8201    451.53083    233.53438   -251.65789    38946.042 
  996000     304.2755   -1535.0395     472.7879    299.13661   -616.55273    38946.042 
  996100      287.768   -1519.6256    473.81052     241.7153    363.57693    38946.042 
  996200    295.28226   -1550.1886    495.41632    266.37836   -503.99066    38946.042 
  996300    305.55702   -1556.6819    459.01893    269.45899   -110.61505    38946.042 
  996400    298.50922    -1555.256    476.68263     257.0154   -216.63872    38946.042 
  996500    300.68728   -1509.4071    487.93069    323.85732    186.18602    38946.042 
  996600    293.28196   -1537.0483    472.06592     247.2186    374.51531    38946.042 
  996700    291.96549   -1542.2077    461.83963    225.94268    422.72954    38946.042 
  996800    295.97902     -1533.95    489.16107    279.47918    278.96254    38946.042 
  996900     307.4416    -1570.905    467.25259     271.9015   -41.307044    38946.042 
  997000    293.70133   -1526.4751    450.55676     238.1589    -273.7987    38946.042 
  997100    304.81632   -1496.8883    481.07827    347.99792   -132.76304    38946.042 
  997200    306.65522   -1486.1209     472.5034    358.41807   -81.096312    38946.042 
  997300    295.55327   -1494.1592    464.86833     293.0724    75.488802    38946.042 
  997400    309.78283   -1489.5556    486.79544    383.26891    449.35068    38946.042 
  997500    300.81603   -1504.0925    450.60278    292.42015    816.62117    38946.042 
  997600     285.7424    -1479.227    521.59249    320.83298    680.14108    38946.042 
  997700    290.89738   -1505.0997    492.69342    289.12561   -33.110233    38946.042 
  997800    298.60657    -1522.773    447.05602    260.30727    558.44333    38946.042 
  997900    298.16392    -1505.501    464.75095    293.29374   -268.52834    38946.042 
  998000    306.84803   -1508.1398    502.79873    367.55711     445.2457    38946.042 
  998100    296.44165   -1516.8114    438.92593    248.45252    605.43186    38946.042 
  998200    300.18657   -1529.4955    511.12905    324.72705    169.13337    38946.042 
  998300     291.8218   -1523.1675    449.41667    231.91702    80.093048    38946.042 
  998400    289.35788   -1524.8428    495.74885    265.54991    242.28834    38946.042 
  998500    296.31264   -1529.3121    459.70093    256.14959     72.83649    38946.042 
  998600    297.55492   -1489.5853    476.76611    318.49984    243.45718    38946.042 
  998700    294.21684   -1477.5637     471.6702    310.49025    127.14296    38946.042 
  998800    308.34249   -1573.7399    467.05121    272.89594   -353.75699    38946.042 
  998900    295.67374   -1517.0134     468.3919    274.28069   -87.371608    38946.042 
  999000    287.55662   -1494.1267    490.20012    282.65807    -584.0239    38946.042 
  999100    311.71336    -1471.122    479.41408    402.95874   -718.48292    38946.042 
  999200     301.2396   -1489.1001    480.23063    338.93552    -112.0386    38946.042 
  999300    304.12243   -1476.1188    490.61037    375.19487   -108.62484    38946.042 
  999400    294.81366   -1442.6458    477.68341    354.09164   -328.99062    38946.042 
  999500     298.8251   -1434.1769    501.87561    404.70074   -207.15064    38946.042 
  999600    293.02772   -1474.8994    479.21079    315.37485   -370.19133    38946.042 
  999700    294.47453   -1488.7592    450.64096    279.41851   -141.27616    38946.042 
  999800    299.13562   -1477.5899    483.81743    344.61888   -560.67526    38946.042 
  999900    294.74367   -1522.0043    475.37509     272.1117   -843.04101    38946.042 
 1000000    303.07775   -1562.6889    456.15098     249.4913   -650.13415    38946.042 
 1000100     307.9643   -1556.2704    471.89775    293.51993   -177.84104    38946.042 
 1000200    303.12644   -1534.4812    464.60623    286.37211   -436.89573    38946.042 
 1000300    296.30446   -1486.0983    489.53246    329.15832   -547.47482    38946.042 
 1000400    297.23032   -1486.6092    465.67412    308.93157   -314.64555    38946.042 
 1000500    298.28269   -1494.7085    457.39432    297.26103    497.89268    38946.042 
 1000600     304.5604    -1460.634    486.78769    388.81653    -303.7549    38946.042 
 1000700    306.55248   -1464.1339    475.22587    382.66784   -72.257477    38946.042 
 1000800    297.31994   -1478.6322    503.52109    355.15649     177.9273    38946.042 
 1000900    299.01354   -1495.2508    480.36504     322.9594   -148.48341    38946.042 
 1001000    300.69517   -1455.1238    500.73334    390.97864    -266.0551    38946.042 
 1001100    294.38305   -1480.0593    456.82392    293.89201   -36.796258    38946.042 
 1001200    303.30399    -1471.681    476.76553    362.12602    677.65206    38946.042 
 1001300    294.52589   -1501.5248     467.8688    284.11048    675.24773    38946.042 
 1001400    299.06625   -1474.9094    484.03718    347.20874    381.18913    38946.042 
 1001500    293.26564   -1516.8043    469.91501    265.23867   -97.028853    38946.042 
 1001600    298.14118   -1484.7917    476.59861    325.74889   -412.47948    38946.042 
 1001700     309.1001    -1500.825    490.85387    373.00323    45.212409    38946.042 
 1001800    296.10038   -1501.2298    475.28387    298.86516   -93.009618    38946.042 
 1001900    290.10976    -1460.956    475.82166    312.87351   -512.77263    38946.042 
 1002000    291.68433   -1503.9642    472.00156    273.09022   -255.39443    38946.042 
 1002100    304.45271   -1536.8612    475.03991    300.35972   -362.41096    38946.042 
 1002200    299.84546   -1540.3443    455.72669    256.94974   -714.01463    38946.042 
 1002300    313.28742   -1501.8324    477.98618    377.86311   -895.32146    38946.042 
 1002400    303.09502   -1477.4935    483.20244    361.81541   -498.59113    38946.042 
 1002500    297.31355   -1466.8396     469.3337    332.73315   -624.77376    38946.042 
 1002600    300.04689    -1444.125    460.88354    359.22708   -117.75287    38946.042 
 1002700    300.70062   -1459.0322     510.8813    397.24253    -1083.605    38946.042 
 1002800    300.00814   -1433.4837    482.06588    390.87739   -519.64528    38946.042 
 1002900    294.58055     -1469.63    484.65314     333.0342   -714.01118    38946.042 
 1003000    307.08091   -1449.5156    482.15808    406.58258   -92.193466    38946.042 
 1003100    291.07901   -1489.3648    489.02225     302.0019   -167.64325    38946.042 
 1003200    304.03359   -1487.3148    487.84329    360.83432    197.07892    38946.042 
 1003300    300.04567   -1496.0084    479.38323    325.83792   -75.197898    38946.042 
 1003400    303.32784   -1498.2456    474.30861    333.21125    145.86611    38946.042 
 1003500    306.85084   -1456.9686    490.81316    406.75535   -137.45957    38946.042 
 1003600     296.2473    -1528.758    459.48668    256.19709     51.48377    38946.042 
 1003700    299.61382   -1503.0373    457.74643    295.24001   -77.366629    38946.042 
 1003800      298.807   -1537.3613    457.05233    256.61208   -453.44741    38946.042 
 1003900    295.30705   -1490.7305    467.80813    298.33923    -354.0051    38946.042 
 1004000    289.29458   -1521.4815    467.67651    240.55564    563.40736    38946.042 
 1004100    299.40613   -1528.6862    454.82065     265.7361   -245.17365    38946.042 
 1004200    307.60192   -1490.5695    477.45902    363.16073   -310.96783    38946.042 
 1004300    286.53263   -1495.5093    478.57107    265.06485    170.35874    38946.042 
 1004400    297.50471   -1506.8155    458.83241    283.11128    327.06096    38946.042 
 1004500    307.05059    -1492.194    483.59179    365.20229    586.66756    38946.042 
 1004600    293.47415   -1479.1804    480.87618    314.75658    509.32634    38946.042 
 1004700    293.75566   -1518.6439    467.64231    263.31877    296.83106    38946.042 
 1004800    304.03475   -1476.9648     488.7215    372.06775   -218.85291    38946.042 
 1004900    296.44365   -1463.5589     482.5063    345.29438    123.73622    38946.042 
 1005000    299.73086   -1493.8966    459.36044    306.51843   -489.22126    38946.042 
 1005100    298.88333   -1444.3532     489.8846    382.79397   -990.55869    38946.042 
 1005200    298.03949   -1464.1387    491.56488     360.9133   -482.67041    38946.042 
 1005300    298.33758   -1449.4439    467.56741    352.94422   -537.74524    38946.042 
 1005400    296.77946   -1491.4338    455.38701    291.80261   -289.75422    38946.042 
 1005500    288.29363   -1537.7619    455.13191    207.25214   -101.54579    38946.042 
 1005600    304.76132   -1491.7829    497.80081    369.57973    115.35992    38946.042 
 1005674    294.83394   -1439.9952     487.2965    366.44609   -356.58443    38946.042 
Loop time of 599.088 on 32 procs for 1000000 steps with 1502 atoms

Performance: 144.219 ns/day, 0.166 hours/ns, 1669.204 timesteps/s
100.0% CPU use with 32 MPI tasks x no OpenMP threads

MPI task timing breakdown:
Section |  min time  |  avg time  |  max time  |%varavg| %total
---------------------------------------------------------------
Pair    | 228.58     | 264.56     | 290.68     |  93.1 | 44.16
Bond    | 1.3366     | 1.4682     | 1.6269     |   5.1 |  0.25
Neigh   | 39.155     | 39.227     | 39.294     |   0.8 |  6.55
Comm    | 256.55     | 282.79     | 318.72     |  90.0 | 47.20
Output  | 0.38849    | 0.40409    | 0.83649    |  12.2 |  0.07
Modify  | 7.7496     | 7.9032     | 8.1081     |   3.6 |  1.32
Other   |            | 2.737      |            |       |  0.46

Nlocal:        46.9375 ave          68 max          14 min
Histogram: 3 0 2 3 5 1 2 5 4 7
Nghost:        1949.72 ave        2041 max        1891 min
Histogram: 3 5 3 6 3 8 1 1 1 1
Neighs:        5077.91 ave        8587 max         829 min
Histogram: 3 1 3 4 1 5 4 4 3 4

Total # of neighbors = 162493
Ave neighs/atom = 108.18442
Ave special neighs/atom = 1.9986684
Neighbor list builds = 49624
Dangerous builds = 0
The system volume is 38946.0418741994
Lattice vectors
33.8964676039044 0 0
0 33.8964676039044 0
0 0 33.8964676039044
Total wall time: 0:10:03
