LAMMPS data file
 1514 atoms
 1015 bonds
 523 angles
 32 dihedrals
 7 impropers
 7 atom types
 8 bond types
 5 angle types
 4 dihedral types
 1 improper types
 0 15 xlo xhi
 0 15 ylo yhi
 0 15 zlo zhi
 0 0 0 xy xz yz

# Atom types
#
# 1 C_R
# 2 N_2
# 3 S_3
# 4 C_2
# 5 H_
# 6 H__HB
# 7 O_3

# Bond Coeffs
#
# 1 C_R*C_R
# 2 C_R*N_2
# 3 C_R*S_3
# 4 N_2*C_2
# 5 S_3*C_2
# 6 C_R*H_
# 7 C_2*H_
# 8 O_3*H__HB

# Angle Coeffs
#
# 1 C_R
# 2 N_2
# 3 S_3
# 4 C_2
# 5 O_3

# Dihedral Coeffs
#
# 1 D1
# 2 E1
# 3 I1
# 4 C1

# Inversion Coeffs
#
# 1 1

 Masses

 1 12.01
 2 14.01
 3 32.06
 4 12.01
 5 1.01
 6 1.01
 7 16

 Atoms # full

1 1 1 0 10.3502875156864 1.94618215121418 4.28027798142111
2 1 1 0 10.1160551480631 2.0055888236916 5.65111070105642
3 1 1 0 10.3170864602527 0.718559126517033 3.60153564507284
4 1 1 0 9.84154817426213 0.83739676334565 6.38338795147413
5 1 1 0 10.0425148368858 -0.456669052372805 4.32940507785935
6 1 1 0 9.79903649592073 -0.426232541332434 5.73195989898991
7 1 2 0 10.5945450590739 3.14652634295282 3.74176995561496
8 1 3 0 10.2049413070833 3.61252168733309 6.28127366607706
9 1 4 0 10.55750737481 4.13644032316775 4.65161757017435
10 1 5 0 10.4894658521677 0.677418622731975 2.59453736096739
11 1 5 0 9.67403902197026 0.915408501223133 7.38887863400271
12 1 5 0 10.02217355864 -1.34261517593467 3.81927439994924
13 1 5 0 10.7884080268078 5.40194948580963 4.22929517179081
14 1 5 0 9.53361277495859 -1.57149356579776 6.4292101296756
15 2 6 0 -0.541491414913908 11.6667639363464 10.6996777758468
16 2 7 0 0.418508585086092 11.6667639363464 10.6996777758468
17 2 6 0 0.658508585086092 10.7367639363464 10.6996777758468
18 3 6 0 0.0619745619781316 1.21337527450174 3.24233822291717
19 3 7 0 1.02197456197813 1.21337527450174 3.24233822291717
20 3 6 0 1.26197456197813 0.283375274501741 3.24233822291717
21 4 6 0 12.7374872162193 5.73654040036723 8.17659349297173
22 4 7 0 13.6974872162193 5.73654040036723 8.17659349297173
23 4 6 0 13.9374872162193 4.80654040036723 8.17659349297173
24 5 6 0 4.63252684727311 9.21765630174428 6.96018408285454
25 5 7 0 5.59252684727311 9.21765630174428 6.96018408285454
26 5 6 0 5.83252684727311 8.28765630174428 6.96018408285454
27 6 6 0 3.69327470471151 5.71094669559039 13.2181482855231
28 6 7 0 4.65327470471151 5.71094669559039 13.2181482855231
29 6 6 0 4.89327470471151 4.78094669559039 13.2181482855231
30 7 6 0 2.79954492274672 1.51248766615987 14.8548047163058
31 7 7 0 3.75954492274672 1.51248766615987 14.8548047163058
32 7 6 0 3.99954492274672 0.582487666159868 14.8548047163058
33 8 6 0 2.29515587372705 14.6808783236798 11.4765208947938
34 8 7 0 3.25515587372705 14.6808783236798 11.4765208947938
35 8 6 0 3.49515587372705 13.7508783236798 11.4765208947938
36 9 6 0 8.26163021891378 2.38703970256262 8.53846152196638
37 9 7 0 9.22163021891378 2.38703970256262 8.53846152196638
38 9 6 0 9.46163021891378 1.45703970256262 8.53846152196638
39 10 6 0 11.5943781640101 0.585406832806766 13.7946951552294
40 10 7 0 12.5543781640101 0.585406832806766 13.7946951552294
41 10 6 0 12.7943781640101 -0.344593167193234 13.7946951552294
42 11 6 0 13.5330654568691 6.39904728433117 2.78549236245453
43 11 7 0 14.4930654568691 6.39904728433117 2.78549236245453
44 11 6 0 14.7330654568691 5.46904728433117 2.78549236245453
45 12 6 0 10.7159086321201 13.66797958076 11.7794514459092
46 12 7 0 11.6759086321201 13.66797958076 11.7794514459092
47 12 6 0 11.9159086321201 12.73797958076 11.7794514459092
48 13 6 0 0.797748849000782 8.33958374726586 13.8002499332651
49 13 7 0 1.75774884900078 8.33958374726586 13.8002499332651
50 13 6 0 1.99774884900078 7.40958374726586 13.8002499332651
51 14 6 0 2.90514163716696 11.7824783133715 10.4805777326692
52 14 7 0 3.86514163716696 11.7824783133715 10.4805777326692
53 14 6 0 4.10514163716696 10.8524783133715 10.4805777326692
54 15 6 0 12.0680107623059 13.6109350509383 5.16991890384816
55 15 7 0 13.0280107623059 13.6109350509383 5.16991890384816
56 15 6 0 13.2680107623059 12.6809350509383 5.16991890384816
57 16 6 0 0.113618257893249 9.18275835615583 12.302551867906
58 16 7 0 1.07361825789325 9.18275835615583 12.302551867906
59 16 6 0 1.31361825789325 8.25275835615583 12.302551867906
60 17 6 0 5.05643519151025 12.434887801474 2.40227401955053
61 17 7 0 6.01643519151025 12.434887801474 2.40227401955053
62 17 6 0 6.25643519151025 11.504887801474 2.40227401955053
63 18 6 0 1.33039084888995 9.2394901676476 2.67074383911677
64 18 7 0 2.29039084888995 9.2394901676476 2.67074383911677
65 18 6 0 2.53039084888995 8.3094901676476 2.67074383911677
66 19 6 0 5.16772385730408 10.6670603590924 7.57900643628091
67 19 7 0 6.12772385730408 10.6670603590924 7.57900643628091
68 19 6 0 6.36772385730408 9.73706035909243 7.57900643628091
69 20 6 0 6.28853712041862 8.31020116032101 0.577050971332937
70 20 7 0 7.24853712041862 8.31020116032101 0.577050971332937
71 20 6 0 7.48853712041862 7.38020116032101 0.577050971332937
72 21 6 0 5.53740309013054 4.76950781228021 14.2393881920725
73 21 7 0 6.49740309013054 4.76950781228021 14.2393881920725
74 21 6 0 6.73740309013054 3.83950781228021 14.2393881920725
75 22 6 0 11.5705995359179 10.9509843300935 5.97403581021354
76 22 7 0 12.5305995359179 10.9509843300935 5.97403581021354
77 22 6 0 12.7705995359179 10.0209843300935 5.97403581021354
78 23 6 0 5.8411052128952 0.580391901722178 5.5144701548852
79 23 7 0 6.8011052128952 0.580391901722178 5.5144701548852
80 23 6 0 7.0411052128952 -0.349608098277822 5.5144701548852
81 24 6 0 11.049137653755 9.60040379123762 6.49490946438164
82 24 7 0 12.009137653755 9.60040379123762 6.49490946438164
83 24 6 0 12.249137653755 8.67040379123762 6.49490946438164
84 25 6 0 10.5635503346287 8.39990899240598 2.52988566295244
85 25 7 0 11.5235503346287 8.39990899240598 2.52988566295244
86 25 6 0 11.7635503346287 7.46990899240598 2.52988566295244
87 26 6 0 -0.490823257276788 7.71790018229745 7.02957413275726
88 26 7 0 0.469176742723212 7.71790018229745 7.02957413275726
89 26 6 0 0.709176742723212 6.78790018229745 7.02957413275726
90 27 6 0 14.189321438754 0.387824015170336 10.569669676479
91 27 7 0 15.149321438754 0.387824015170336 10.569669676479
92 27 6 0 15.389321438754 -0.542175984829664 10.569669676479
93 28 6 0 1.56598411660641 5.59986352263018 2.36597866052762
94 28 7 0 2.52598411660641 5.59986352263018 2.36597866052762
95 28 6 0 2.76598411660641 4.66986352263018 2.36597866052762
96 29 6 0 7.58487602739595 8.20653262589127 5.13265069923364
97 29 7 0 8.54487602739595 8.20653262589127 5.13265069923364
98 29 6 0 8.78487602739595 7.27653262589127 5.13265069923364
99 30 6 0 5.4333547018189 12.9140845795069 10.4570989357308
100 30 7 0 6.3933547018189 12.9140845795069 10.4570989357308
101 30 6 0 6.6333547018189 11.9840845795069 10.4570989357308
102 31 6 0 10.8172198051773 12.0380525085516 6.78194669773802
103 31 7 0 11.7772198051773 12.0380525085516 6.78194669773802
104 31 6 0 12.0172198051773 11.1080525085516 6.78194669773802
105 32 6 0 0.95652563424781 2.95991597272456 11.6459686879534
106 32 7 0 1.91652563424781 2.95991597272456 11.6459686879534
107 32 6 0 2.15652563424781 2.02991597272456 11.6459686879534
108 33 6 0 3.93161749511026 5.92806762823835 11.9617660262156
109 33 7 0 4.89161749511026 5.92806762823835 11.9617660262156
110 33 6 0 5.13161749511026 4.99806762823835 11.9617660262156
111 34 6 0 12.568864090573 8.8055997869838 4.82254760339856
112 34 7 0 13.528864090573 8.8055997869838 4.82254760339856
113 34 6 0 13.768864090573 7.8755997869838 4.82254760339856
114 35 6 0 9.54976337889209 1.22265924856998 7.62430569157004
115 35 7 0 10.5097633788921 1.22265924856998 7.62430569157004
116 35 6 0 10.7497633788921 0.29265924856998 7.62430569157004
117 36 6 0 13.2690874607954 8.34404628997669 11.7132344108541
118 36 7 0 14.2290874607954 8.34404628997669 11.7132344108541
119 36 6 0 14.4690874607954 7.41404628997669 11.7132344108541
120 37 6 0 7.90999544595368 3.50280923577026 8.13457672018558
121 37 7 0 8.86999544595368 3.50280923577026 8.13457672018558
122 37 6 0 9.10999544595368 2.57280923577026 8.13457672018558
123 38 6 0 10.4913391351886 3.19841411122121 11.9138435774948
124 38 7 0 11.4513391351886 3.19841411122121 11.9138435774948
125 38 6 0 11.6913391351886 2.26841411122121 11.9138435774948
126 39 6 0 14.1882290881779 1.99552651302889 13.0938105401583
127 39 7 0 15.1482290881779 1.99552651302889 13.0938105401583
128 39 6 0 15.3882290881779 1.06552651302889 13.0938105401583
129 40 6 0 3.41758171023801 4.71089219249785 1.88985577085987
130 40 7 0 4.37758171023801 4.71089219249785 1.88985577085987
131 40 6 0 4.61758171023801 3.78089219249785 1.88985577085987
132 41 6 0 4.34535054417327 13.4567228650581 5.31240772688761
133 41 7 0 5.30535054417327 13.4567228650581 5.31240772688761
134 41 6 0 5.54535054417327 12.5267228650581 5.31240772688761
135 42 6 0 0.0858983576484025 11.4657406373322 2.89179281098768
136 42 7 0 1.0458983576484 11.4657406373322 2.89179281098768
137 42 6 0 1.2858983576484 10.5357406373322 2.89179281098768
138 43 6 0 14.0972038863413 0.342472799066454 3.00034229527228
139 43 7 0 15.0572038863413 0.342472799066454 3.00034229527228
140 43 6 0 15.2972038863413 -0.587527200933546 3.00034229527228
141 44 6 0 2.76250085022301 2.57300627458841 12.251648241654
142 44 7 0 3.72250085022301 2.57300627458841 12.251648241654
143 44 6 0 3.96250085022301 1.64300627458841 12.251648241654
144 45 6 0 12.2003110886738 9.30204798857682 14.3918641190976
145 45 7 0 13.1603110886738 9.30204798857682 14.3918641190976
146 45 6 0 13.4003110886738 8.37204798857682 14.3918641190976
147 46 6 0 4.85963206898421 2.80472910072654 14.5911918708589
148 46 7 0 5.81963206898421 2.80472910072654 14.5911918708589
149 46 6 0 6.05963206898421 1.87472910072654 14.5911918708589
150 47 6 0 11.3382870428916 8.6685930953268 10.0740998634137
151 47 7 0 12.2982870428916 8.6685930953268 10.0740998634137
152 47 6 0 12.5382870428916 7.7385930953268 10.0740998634137
153 48 6 0 11.5432799029816 11.687590727061 1.11857376177795
154 48 7 0 12.5032799029816 11.687590727061 1.11857376177795
155 48 6 0 12.7432799029816 10.757590727061 1.11857376177795
156 49 6 0 5.56783674328588 13.8214567575511 7.18911827425472
157 49 7 0 6.52783674328588 13.8214567575511 7.18911827425472
158 49 6 0 6.76783674328588 12.8914567575511 7.18911827425472
159 50 6 0 5.88329462843947 11.2570288280863 12.3909208201803
160 50 7 0 6.84329462843947 11.2570288280863 12.3909208201803
161 50 6 0 7.08329462843947 10.3270288280863 12.3909208201803
162 51 6 0 4.21635766790248 13.225152865462 3.70560264098458
163 51 7 0 5.17635766790248 13.225152865462 3.70560264098458
164 51 6 0 5.41635766790248 12.295152865462 3.70560264098458
165 52 6 0 -0.116265760296956 4.76466011413373 3.88631413690746
166 52 7 0 0.843734239703044 4.76466011413373 3.88631413690746
167 52 6 0 1.08373423970304 3.83466011413373 3.88631413690746
168 53 6 0 5.58686977878213 14.9862243926059 6.34596207062714
169 53 7 0 6.54686977878213 14.9862243926059 6.34596207062714
170 53 6 0 6.78686977878213 14.0562243926059 6.34596207062714
171 54 6 0 5.19970992274582 10.1501662195101 8.0792747461237
172 54 7 0 6.15970992274582 10.1501662195101 8.0792747461237
173 54 6 0 6.39970992274582 9.22016621951014 8.0792747461237
174 55 6 0 1.35842890522443 12.2470590988547 11.7841086653061
175 55 7 0 2.31842890522443 12.2470590988547 11.7841086653061
176 55 6 0 2.55842890522443 11.3170590988547 11.7841086653061
177 56 6 0 7.21368255137466 4.95493826730177 9.45734691107646
178 56 7 0 8.17368255137466 4.95493826730177 9.45734691107646
179 56 6 0 8.41368255137466 4.02493826730177 9.45734691107646
180 57 6 0 2.09296697678044 11.8391195234749 11.2478084571194
181 57 7 0 3.05296697678044 11.8391195234749 11.2478084571194
182 57 6 0 3.29296697678044 10.9091195234749 11.2478084571194
183 58 6 0 10.6656610225048 6.42653393716551 0.0753994414117187
184 58 7 0 11.6256610225048 6.42653393716551 0.0753994414117187
185 58 6 0 11.8656610225048 5.49653393716551 0.0753994414117187
186 59 6 0 8.87401229862124 7.73823610431515 6.65240579866804
187 59 7 0 9.83401229862124 7.73823610431515 6.65240579866804
188 59 6 0 10.0740122986212 6.80823610431515 6.65240579866804
189 60 6 0 7.52027394759469 12.6395079357922 3.53595127235167
190 60 7 0 8.48027394759469 12.6395079357922 3.53595127235167
191 60 6 0 8.72027394759469 11.7095079357922 3.53595127235167
192 61 6 0 4.36476748480462 6.6353172475379 14.197221302893
193 61 7 0 5.32476748480462 6.6353172475379 14.197221302893
194 61 6 0 5.56476748480462 5.7053172475379 14.197221302893
195 62 6 0 1.52697171128355 13.2911553063337 13.8214967725798
196 62 7 0 2.48697171128355 13.2911553063337 13.8214967725798
197 62 6 0 2.72697171128355 12.3611553063337 13.8214967725798
198 63 6 0 4.41849474373274 4.17735004954971 7.91796945501119
199 63 7 0 5.37849474373274 4.17735004954971 7.91796945501119
200 63 6 0 5.61849474373274 3.24735004954971 7.91796945501119
201 64 6 0 8.18639001969248 0.384618642684072 3.55147915310226
202 64 7 0 9.14639001969248 0.384618642684072 3.55147915310226
203 64 6 0 9.38639001969248 -0.545381357315928 3.55147915310226
204 65 6 0 13.1669935681578 11.650437651379 5.89236045023426
205 65 7 0 14.1269935681578 11.650437651379 5.89236045023426
206 65 6 0 14.3669935681578 10.720437651379 5.89236045023426
207 66 6 0 5.36972913469188 6.09426477266476 9.23450261936523
208 66 7 0 6.32972913469188 6.09426477266476 9.23450261936523
209 66 6 0 6.56972913469188 5.16426477266476 9.23450261936523
210 67 6 0 5.97111357419752 6.96921076200902 7.01032460317947
211 67 7 0 6.93111357419752 6.96921076200902 7.01032460317947
212 67 6 0 7.17111357419752 6.03921076200902 7.01032460317947
213 68 6 0 3.58272640194744 2.76710816816427 13.9180836675223
214 68 7 0 4.54272640194744 2.76710816816427 13.9180836675223
215 68 6 0 4.78272640194744 1.83710816816427 13.9180836675223
216 69 6 0 3.3335253030248 10.7799942318257 5.27488075895235
217 69 7 0 4.2935253030248 10.7799942318257 5.27488075895235
218 69 6 0 4.5335253030248 9.8499942318257 5.27488075895235
219 70 6 0 12.8805320493132 7.67359560745768 14.6753652021289
220 70 7 0 13.8405320493132 7.67359560745768 14.6753652021289
221 70 6 0 14.0805320493132 6.74359560745768 14.6753652021289
222 71 6 0 0.301839855238795 6.32442660554312 1.73233841895126
223 71 7 0 1.2618398552388 6.32442660554312 1.73233841895126
224 71 6 0 1.5018398552388 5.39442660554312 1.73233841895126
225 72 6 0 4.35411528378725 13.0940676740743 9.10914221545681
226 72 7 0 5.31411528378725 13.0940676740743 9.10914221545681
227 72 6 0 5.55411528378725 12.1640676740743 9.10914221545681
228 73 6 0 2.17792021969333 8.84283578762785 0.920454484876245
229 73 7 0 3.13792021969333 8.84283578762785 0.920454484876245
230 73 6 0 3.37792021969333 7.91283578762785 0.920454484876245
231 74 6 0 9.90192952609621 8.01681747817434 1.57219637883827
232 74 7 0 10.8619295260962 8.01681747817434 1.57219637883827
233 74 6 0 11.1019295260962 7.08681747817434 1.57219637883827
234 75 6 0 8.5954826934915 2.9350618591439 6.9583372247871
235 75 7 0 9.5554826934915 2.9350618591439 6.9583372247871
236 75 6 0 9.7954826934915 2.0050618591439 6.9583372247871
237 76 6 0 13.5949026925676 8.43632762128487 3.23846229119226
238 76 7 0 14.5549026925676 8.43632762128487 3.23846229119226
239 76 6 0 14.7949026925676 7.50632762128487 3.23846229119226
240 77 6 0 0.178536338936538 14.0414986751881 13.5675472696312
241 77 7 0 1.13853633893654 14.0414986751881 13.5675472696312
242 77 6 0 1.37853633893654 13.1114986751881 13.5675472696312
243 78 6 0 10.2966157898493 14.8862657513842 5.5376040819101
244 78 7 0 11.2566157898493 14.8862657513842 5.5376040819101
245 78 6 0 11.4966157898493 13.9562657513842 5.5376040819101
246 79 6 0 6.81459562780336 13.8830107757263 14.3348577234428
247 79 7 0 7.77459562780336 13.8830107757263 14.3348577234428
248 79 6 0 8.01459562780336 12.9530107757263 14.3348577234428
249 80 6 0 8.77045161134563 7.99870798172429 13.5275412350893
250 80 7 0 9.73045161134563 7.99870798172429 13.5275412350893
251 80 6 0 9.97045161134563 7.06870798172429 13.5275412350893
252 81 6 0 9.6966151676327 10.4077537862491 8.22011757292785
253 81 7 0 10.6566151676327 10.4077537862491 8.22011757292785
254 81 6 0 10.8966151676327 9.47775378624909 8.22011757292785
255 82 6 0 10.4426528576016 2.6470383027941 14.2476227623411
256 82 7 0 11.4026528576016 2.6470383027941 14.2476227623411
257 82 6 0 11.6426528576016 1.7170383027941 14.2476227623411
258 83 6 0 4.21932253215462 12.6191555817518 14.5648233080283
259 83 7 0 5.17932253215462 12.6191555817518 14.5648233080283
260 83 6 0 5.41932253215462 11.6891555817518 14.5648233080283
261 84 6 0 2.74279324963689 8.86128950090148 9.15271720150486
262 84 7 0 3.70279324963689 8.86128950090148 9.15271720150486
263 84 6 0 3.94279324963689 7.93128950090148 9.15271720150486
264 85 6 0 8.93465527377091 1.18295241304673 9.61986755370162
265 85 7 0 9.89465527377091 1.18295241304673 9.61986755370162
266 85 6 0 10.1346552737709 0.252952413046732 9.61986755370162
267 86 6 0 10.9052398258075 14.8412489662319 4.37766846036538
268 86 7 0 11.8652398258075 14.8412489662319 4.37766846036538
269 86 6 0 12.1052398258075 13.9112489662319 4.37766846036538
270 87 6 0 1.01247548402287 2.00036953826435 5.47021035337821
271 87 7 0 1.97247548402287 2.00036953826435 5.47021035337821
272 87 6 0 2.21247548402287 1.07036953826435 5.47021035337821
273 88 6 0 11.7798509581201 1.09183293575421 1.70915074297227
274 88 7 0 12.7398509581201 1.09183293575421 1.70915074297227
275 88 6 0 12.9798509581201 0.16183293575421 1.70915074297227
276 89 6 0 11.2368410154898 2.0572173483111 8.23157445411198
277 89 7 0 12.1968410154898 2.0572173483111 8.23157445411198
278 89 6 0 12.4368410154898 1.1272173483111 8.23157445411198
279 90 6 0 7.99313709765673 1.47565299453214 2.91716988547705
280 90 7 0 8.95313709765673 1.47565299453214 2.91716988547705
281 90 6 0 9.19313709765673 0.545652994532138 2.91716988547705
282 91 6 0 2.20794122127816 5.70025136968121 9.25058010499924
283 91 7 0 3.16794122127816 5.70025136968121 9.25058010499924
284 91 6 0 3.40794122127816 4.77025136968121 9.25058010499924
285 92 6 0 10.3894991269056 5.54882001987658 13.1607826100662
286 92 7 0 11.3494991269056 5.54882001987658 13.1607826100662
287 92 6 0 11.5894991269056 4.61882001987658 13.1607826100662
288 93 6 0 10.6018245038297 5.29452186118811 12.7866322954651
289 93 7 0 11.5618245038297 5.29452186118811 12.7866322954651
290 93 6 0 11.8018245038297 4.36452186118811 12.7866322954651
291 94 6 0 -0.115483463304117 2.89239578572102 9.48687971918844
292 94 7 0 0.844516536695883 2.89239578572102 9.48687971918844
293 94 6 0 1.08451653669588 1.96239578572102 9.48687971918844
294 95 6 0 2.55820956590585 2.49575837556273 12.9109139484353
295 95 7 0 3.51820956590585 2.49575837556273 12.9109139484353
296 95 6 0 3.75820956590585 1.56575837556273 12.9109139484353
297 96 6 0 7.90068432848901 11.2517449566536 2.72344919387251
298 96 7 0 8.86068432848901 11.2517449566536 2.72344919387251
299 96 6 0 9.10068432848901 10.3217449566536 2.72344919387251
300 97 6 0 13.1194677790347 4.37092166900635 5.82614852464758
301 97 7 0 14.0794677790347 4.37092166900635 5.82614852464758
302 97 6 0 14.3194677790347 3.44092166900635 5.82614852464758
303 98 6 0 10.7641053856071 4.27672284114175 14.5611866551917
304 98 7 0 11.7241053856071 4.27672284114175 14.5611866551917
305 98 6 0 11.9641053856071 3.34672284114175 14.5611866551917
306 99 6 0 3.28762250530534 14.2686809196044 4.7438065696042
307 99 7 0 4.24762250530534 14.2686809196044 4.7438065696042
308 99 6 0 4.48762250530534 13.3386809196044 4.7438065696042
309 100 6 0 5.82105353169143 6.15449630463496 1.07160939602181
310 100 7 0 6.78105353169143 6.15449630463496 1.07160939602181
311 100 6 0 7.02105353169143 5.22449630463496 1.07160939602181
312 101 6 0 3.0407647315599 3.20738381281495 8.5261824389454
313 101 7 0 4.0007647315599 3.20738381281495 8.5261824389454
314 101 6 0 4.2407647315599 2.27738381281495 8.5261824389454
315 102 6 0 3.83978958285414 10.3998140529171 14.8802028712817
316 102 7 0 4.79978958285414 10.3998140529171 14.8802028712817
317 102 6 0 5.03978958285414 9.46981405291706 14.8802028712817
318 103 6 0 9.91181799952872 7.74809698731638 4.02148848515935
319 103 7 0 10.8718179995287 7.74809698731638 4.02148848515935
320 103 6 0 11.1118179995287 6.81809698731638 4.02148848515935
321 104 6 0 5.03860407203436 0.662159294998273 6.28806891851127
322 104 7 0 5.99860407203436 0.662159294998273 6.28806891851127
323 104 6 0 6.23860407203436 -0.267840705001727 6.28806891851127
324 105 6 0 -0.437467222362757 12.8625944749825 4.62986779399216
325 105 7 0 0.522532777637243 12.8625944749825 4.62986779399216
326 105 6 0 0.762532777637243 11.9325944749825 4.62986779399216
327 106 6 0 2.14405639140867 9.64351235231385 2.71653106086887
328 106 7 0 3.10405639140867 9.64351235231385 2.71653106086887
329 106 6 0 3.34405639140867 8.71351235231385 2.71653106086887
330 107 6 0 1.61975329902023 10.4486573514901 8.65001109545119
331 107 7 0 2.57975329902023 10.4486573514901 8.65001109545119
332 107 6 0 2.81975329902023 9.51865735149011 8.65001109545119
333 108 6 0 -0.190153480069712 12.2068926731031 5.20262039266527
334 108 7 0 0.769846519930288 12.2068926731031 5.20262039266527
335 108 6 0 1.00984651993029 11.2768926731031 5.20262039266527
336 109 6 0 7.5077082069777 2.40966887836345 1.54036428546533
337 109 7 0 8.4677082069777 2.40966887836345 1.54036428546533
338 109 6 0 8.7077082069777 1.47966887836345 1.54036428546533
339 110 6 0 0.156080298330635 12.2169880433381 1.41768642934039
340 110 7 0 1.11608029833063 12.2169880433381 1.41768642934039
341 110 6 0 1.35608029833063 11.2869880433381 1.41768642934039
342 111 6 0 3.99882248064503 12.647148913648 8.29787325463258
343 111 7 0 4.95882248064503 12.647148913648 8.29787325463258
344 111 6 0 5.19882248064503 11.717148913648 8.29787325463258
345 112 6 0 7.36531075716019 14.3706963087339 9.31101660593413
346 112 7 0 8.32531075716019 14.3706963087339 9.31101660593413
347 112 6 0 8.56531075716019 13.4406963087339 9.31101660593413
348 113 6 0 3.22260578672402 3.3463449617289 14.1054411989171
349 113 7 0 4.18260578672402 3.3463449617289 14.1054411989171
350 113 6 0 4.42260578672402 2.4163449617289 14.1054411989171
351 114 6 0 3.05970524830744 8.83685578167439 7.22782313707285
352 114 7 0 4.01970524830744 8.83685578167439 7.22782313707285
353 114 6 0 4.25970524830744 7.90685578167438 7.22782313707285
354 115 6 0 11.7947659645881 1.64257716079243 13.3743009483442
355 115 7 0 12.7547659645882 1.64257716079243 13.3743009483442
356 115 6 0 12.9947659645882 0.712577160792425 13.3743009483442
357 116 6 0 5.87799887915142 12.8910265855398 8.04597340291366
358 116 7 0 6.83799887915142 12.8910265855398 8.04597340291366
359 116 6 0 7.07799887915142 11.9610265855398 8.04597340291366
360 117 6 0 9.90054112670012 10.2376392057072 1.43402641871944
361 117 7 0 10.8605411267001 10.2376392057072 1.43402641871944
362 117 6 0 11.1005411267001 9.30763920570724 1.43402641871944
363 118 6 0 10.2076068094186 10.7558485497162 3.26521345297806
364 118 7 0 11.1676068094186 10.7558485497162 3.26521345297806
365 118 6 0 11.4076068094186 9.82584854971618 3.26521345297806
366 119 6 0 13.3108237611316 0.860219067372382 14.0546347608324
367 119 7 0 14.2708237611316 0.860219067372382 14.0546347608324
368 119 6 0 14.5108237611316 -0.0697809326276184 14.0546347608324
369 120 6 0 1.06813579841517 1.14802588866092 11.2030606542248
370 120 7 0 2.02813579841517 1.14802588866092 11.2030606542248
371 120 6 0 2.26813579841517 0.218025888660923 11.2030606542248
372 121 6 0 8.7660168476589 7.76408616610803 8.34287473233417
373 121 7 0 9.7260168476589 7.76408616610803 8.34287473233417
374 121 6 0 9.9660168476589 6.83408616610803 8.34287473233417
375 122 6 0 12.0143278785702 12.318964313427 7.17362230410799
376 122 7 0 12.9743278785702 12.318964313427 7.17362230410799
377 122 6 0 13.2143278785702 11.388964313427 7.17362230410799
378 123 6 0 7.62606305812486 14.6798103609495 12.646866410505
379 123 7 0 8.58606305812486 14.6798103609495 12.646866410505
380 123 6 0 8.82606305812486 13.7498103609495 12.646866410505
381 124 6 0 2.65554429424927 12.4024529619515 11.2686509813648
382 124 7 0 3.61554429424927 12.4024529619515 11.2686509813648
383 124 6 0 3.85554429424927 11.4724529619515 11.2686509813648
384 125 6 0 2.95157656699419 7.7816157047078 12.7342584484722
385 125 7 0 3.91157656699419 7.7816157047078 12.7342584484722
386 125 6 0 4.15157656699419 6.8516157047078 12.7342584484722
387 126 6 0 3.4488179934863 8.32110284170136 5.94558465178125
388 126 7 0 4.4088179934863 8.32110284170136 5.94558465178125
389 126 6 0 4.6488179934863 7.39110284170136 5.94558465178125
390 127 6 0 1.52790986278094 6.27785111119971 4.89480912219733
391 127 7 0 2.48790986278094 6.27785111119971 4.89480912219733
392 127 6 0 2.72790986278094 5.34785111119971 4.89480912219733
393 128 6 0 4.06338247630745 10.6620791511983 4.68818848254159
394 128 7 0 5.02338247630745 10.6620791511983 4.68818848254159
395 128 6 0 5.26338247630745 9.73207915119827 4.68818848254159
396 129 6 0 11.7479486558307 8.91775907407515 1.78589923074469
397 129 7 0 12.7079486558307 8.91775907407515 1.78589923074469
398 129 6 0 12.9479486558307 7.98775907407515 1.78589923074469
399 130 6 0 1.8842737159878 9.48015338665806 13.3583884709515
400 130 7 0 2.8442737159878 9.48015338665806 13.3583884709515
401 130 6 0 3.0842737159878 8.55015338665806 13.3583884709515
402 131 6 0 14.2587252908573 11.1189945081156 4.19344692025334
403 131 7 0 15.2187252908573 11.1189945081156 4.19344692025334
404 131 6 0 15.4587252908573 10.1889945081156 4.19344692025334
405 132 6 0 6.10399333454669 0.581871908335015 4.45424567791633
406 132 7 0 7.06399333454669 0.581871908335015 4.45424567791633
407 132 6 0 7.30399333454669 -0.348128091664985 4.45424567791633
408 133 6 0 6.35247923361138 10.4518633630965 0.420549411792308
409 133 7 0 7.31247923361138 10.4518633630965 0.420549411792308
410 133 6 0 7.55247923361138 9.52186336309649 0.420549411792308
411 134 6 0 -0.100253014387563 11.6770114276465 3.72154688229784
412 134 7 0 0.859746985612437 11.6770114276465 3.72154688229784
413 134 6 0 1.09974698561244 10.7470114276465 3.72154688229784
414 135 6 0 8.38190568189137 11.8354206734244 9.52170810545795
415 135 7 0 9.34190568189137 11.8354206734244 9.52170810545795
416 135 6 0 9.58190568189137 10.9054206734244 9.52170810545795
417 136 6 0 13.5308400196675 2.16126847820356 7.73181486641988
418 136 7 0 14.4908400196675 2.16126847820356 7.73181486641988
419 136 6 0 14.7308400196675 1.23126847820356 7.73181486641988
420 137 6 0 9.46622625502758 6.60821547423489 2.26405956200324
421 137 7 0 10.4262262550276 6.60821547423489 2.26405956200324
422 137 6 0 10.6662262550276 5.67821547423489 2.26405956200324
423 138 6 0 0.596214638063684 5.8941624038294 7.28750954847783
424 138 7 0 1.55621463806368 5.8941624038294 7.28750954847783
425 138 6 0 1.79621463806368 4.9641624038294 7.28750954847783
426 139 6 0 4.20303889011964 6.39911890420131 12.1814390388317
427 139 7 0 5.16303889011964 6.39911890420131 12.1814390388317
428 139 6 0 5.40303889011964 5.46911890420131 12.1814390388317
429 140 6 0 2.8993565488793 4.497745511299 3.89708461007103
430 140 7 0 3.8593565488793 4.497745511299 3.89708461007103
431 140 6 0 4.0993565488793 3.567745511299 3.89708461007103
432 141 6 0 3.7576021305006 12.008518540943 11.5614595531952
433 141 7 0 4.7176021305006 12.008518540943 11.5614595531952
434 141 6 0 4.9576021305006 11.078518540943 11.5614595531952
435 142 6 0 10.4197876578849 3.77309554297477 4.01656066300347
436 142 7 0 11.3797876578849 3.77309554297477 4.01656066300347
437 142 6 0 11.6197876578849 2.84309554297477 4.01656066300347
438 143 6 0 7.1880398962833 5.50771830993704 6.82522165006958
439 143 7 0 8.1480398962833 5.50771830993704 6.82522165006958
440 143 6 0 8.3880398962833 4.57771830993704 6.82522165006958
441 144 6 0 11.4661679514404 5.8966407265421 2.53350059967488
442 144 7 0 12.4261679514404 5.8966407265421 2.53350059967488
443 144 6 0 12.6661679514404 4.9666407265421 2.53350059967488
444 145 6 0 2.03088749709539 10.1644821713585 4.12233698763885
445 145 7 0 2.99088749709539 10.1644821713585 4.12233698763885
446 145 6 0 3.23088749709539 9.23448217135854 4.12233698763885
447 146 6 0 11.1768775297981 7.90703068179078 8.97111202008091
448 146 7 0 12.1368775297981 7.90703068179078 8.97111202008091
449 146 6 0 12.3768775297981 6.97703068179078 8.97111202008091
450 147 6 0 1.03668826326728 1.72334061161615 1.39201789512299
451 147 7 0 1.99668826326728 1.72334061161615 1.39201789512299
452 147 6 0 2.23668826326728 0.793340611616149 1.39201789512299
453 148 6 0 11.1866964334343 11.1027943498362 14.2587435501628
454 148 7 0 12.1466964334343 11.1027943498362 14.2587435501628
455 148 6 0 12.3866964334343 10.1727943498362 14.2587435501628
456 149 6 0 8.92330155984498 7.91828030644916 4.3254756659735
457 149 7 0 9.88330155984499 7.91828030644916 4.3254756659735
458 149 6 0 10.123301559845 6.98828030644916 4.3254756659735
459 150 6 0 12.5416101996973 7.62320007820614 11.6679358156398
460 150 7 0 13.5016101996973 7.62320007820614 11.6679358156398
461 150 6 0 13.7416101996973 6.69320007820614 11.6679358156398
462 151 6 0 8.78571445981041 6.59974895575084 5.07377562113106
463 151 7 0 9.74571445981041 6.59974895575084 5.07377562113106
464 151 6 0 9.98571445981041 5.66974895575084 5.07377562113106
465 152 6 0 10.0397985304892 7.4316717956122 8.89816129230894
466 152 7 0 10.9997985304892 7.4316717956122 8.89816129230894
467 152 6 0 11.2397985304892 6.5016717956122 8.89816129230894
468 153 6 0 14.1631740883179 6.71197704778984 2.82363543170504
469 153 7 0 15.1231740883179 6.71197704778984 2.82363543170504
470 153 6 0 15.3631740883179 5.78197704778984 2.82363543170504
471 154 6 0 10.3166174520459 5.53988374810666 10.7683068152983
472 154 7 0 11.2766174520459 5.53988374810666 10.7683068152983
473 154 6 0 11.5166174520459 4.60988374810666 10.7683068152983
474 155 6 0 10.1281419982854 5.06745102623478 9.44570431136526