LAMMPS (29 Sep 2021 - Update 1)
# Test LAMMPS input file for single DeFDe

# Initialize simulation

clear

units real
atom_style full
boundary p p p
dielectric 1
special_bonds dreiding

bond_style harmonic
angle_style harmonic
dihedral_style harmonic
improper_style umbrella
pair_style hybrid/overlay hbond/dreiding/lj 4 9.0 11.0 90 lj/cut 8.50000

# Read data file
read_data frag5.dat
Reading data file ...
  triclinic box = (0.0000000 0.0000000 0.0000000) to (15.000000 15.000000 15.000000) with tilt (0.0000000 0.0000000 0.0000000)
  2 by 4 by 4 MPI processor grid
  reading atoms ...
  1514 atoms
  scanning bonds ...
  3 = max bonds/atom
  scanning angles ...
  3 = max angles/atom
  scanning dihedrals ...
  8 = max dihedrals/atom
  scanning impropers ...
  2 = max impropers/atom
  reading bonds ...
  1015 bonds
  reading angles ...
  523 angles
  reading dihedrals ...
  32 dihedrals
  reading impropers ...
  7 impropers
Finding 1-2 1-3 1-4 neighbors ...
  special bond factors lj:    0        0        1       
  special bond factors coul:  0        0        1       
     3 = max # of 1-2 neighbors
     5 = max # of 1-3 neighbors
     8 = max # of special neighbors
  special bonds CPU = 0.002 seconds
  read_data CPU = 0.017 seconds

# Dreiding potential information

bond_coeff 1 525 1.39
bond_coeff 2 350 1.305
bond_coeff 3 350 1.73
bond_coeff 4 700 1.275
bond_coeff 5 350 1.7
bond_coeff 6 350 1.02
bond_coeff 7 350 0.99
bond_coeff 8 350 0.98

angle_coeff 1 50 120
angle_coeff 2 50 120
angle_coeff 3 50 92.1
angle_coeff 4 50 120
angle_coeff 5 50 104.51

dihedral_coeff 1 3.125 -1 2
dihedral_coeff 2 1.25 -1 2
dihedral_coeff 3 0.5 -1 2
dihedral_coeff 4 11.25 -1 2

improper_coeff 1 40 0

pair_coeff 1 1 lj/cut 0.0951 3.8983
pair_coeff 1 2 lj/cut 0.0857947550844456 3.77835472527395
pair_coeff 1 3 lj/cut 0.180871224908773 3.96360303259547
pair_coeff 1 4 lj/cut 0.0951 3.8983
pair_coeff 1 5 lj/cut 0.0380199947396104 3.52917391183829
pair_coeff 1 6 lj/cut 0.00308382878902186 3.52806914614779
pair_coeff 1 7 lj/cut 0.0953995283007206 3.64309650983885
pair_coeff 2 2 lj/cut 0.0774 3.6621
pair_coeff 2 3 lj/cut 0.163173527264688 3.84164847428809
pair_coeff 2 4 lj/cut 0.0857947550844456 3.77835472527395
pair_coeff 2 5 lj/cut 0.0342998542270955 3.42058613398347
pair_coeff 2 6 lj/cut 0.00278208554864871 3.41951536039831
pair_coeff 2 7 lj/cut 0.0860649754545948 3.53100349192691
pair_coeff 3 3 lj/cut 0.344 4.03
pair_coeff 3 4 lj/cut 0.180871224908773 3.96360303259547
pair_coeff 3 5 lj/cut 0.0723104418462507 3.58829346625941
pair_coeff 3 6 lj/cut 0.00586515131944607 3.58717019389936
pair_coeff 3 7 lj/cut 0.18144089946867 3.70412445795224
pair_coeff 4 4 lj/cut 0.0951 3.8983
pair_coeff 4 5 lj/cut 0.0380199947396104 3.52917391183829
pair_coeff 4 6 lj/cut 0.00308382878902186 3.52806914614779
pair_coeff 4 7 lj/cut 0.0953995283007206 3.64309650983885
pair_coeff 5 5 lj/cut 0.0152 3.195
pair_coeff 5 6 lj/cut 0.0012328828005938 3.19399984345648
pair_coeff 5 7 lj/cut 0.0381397430510485 3.29813538230316
pair_coeff 6 6 lj/cut 1e-04 3.193
pair_coeff 6 7 lj/cut 0.0030935416596516 3.29710294046152
pair_coeff 7 7 lj/cut 0.0957 3.4046
pair_coeff 2 2 hbond/dreiding/lj 6 j 9.50 2.75 4 9.0 11.0 90
pair_coeff 2 7 hbond/dreiding/lj 6 i 9.50 2.75 4 9.0 11.0 90
pair_coeff 2 7 hbond/dreiding/lj 6 j 9.50 2.75 4 9.0 11.0 90
pair_coeff 7 7 hbond/dreiding/lj 6 j 9.50 2.75 4 9.0 11.0 90

neighbor 2 bin
neigh_modify every 2 one 10000

# Gemoetric relaxation
fix 1 all box/relax iso 1.0 vmax 0.001
minimize 1.0e-4 1.0e-6 10000 10000
WARNING: Using 'neigh_modify every 1 delay 0 check yes' setting during minimization (../min.cpp:188)
Neighbor list info ...
  update every 1 steps, delay 0 steps, check yes
  max neighbors/atom: 10000, page size: 100000
  master list distance cutoff = 13
  ghost atom cutoff = 13
  binsize = 6.5, bins = 3 3 3
  3 neighbor lists, perpetual/occasional/extra = 3 0 0
  (1) pair hbond/dreiding/lj, perpetual, skip from (3)
      attributes: full, newton on
      pair build: skip
      stencil: none
      bin: none
  (2) pair lj/cut, perpetual, half/full from (3)
      attributes: half, newton on
      pair build: halffull/newton
      stencil: none
      bin: none
  (3) neighbor class addition, perpetual
      attributes: full, newton on
      pair build: full/bin
      stencil: full/bin/3d
      bin: standard
Per MPI rank memory allocation (min/avg/max) = 13.46 | 13.81 | 14.26 Mbytes
Step Temp E_pair E_mol TotEng Press Volume 
       0            0 3.1351783e+16    237.04811 3.1351783e+16 2.5478424e+18         3375 
    4984            0   -912.45993    29.850073   -882.60986   -142.38463    37401.237 
Loop time of 4.13775 on 32 procs for 4984 steps with 1514 atoms

100.0% CPU use with 32 MPI tasks x no OpenMP threads

Minimization stats:
  Stopping criterion = energy tolerance
  Energy initial, next-to-last, final = 
    3.13517826632386e+16   -882.04677571619  -882.113622351822
  Force two-norm initial, final = 3.2467234e+18 129.20773
  Force max component initial, final = 1.8076323e+18 105.24019
  Final line search alpha, max atom move = 2.0267877e-05 0.0021329953
  Iterations, force evaluations = 4984 4984

MPI task timing breakdown:
Section |  min time  |  avg time  |  max time  |%varavg| %total
---------------------------------------------------------------
Pair    | 1.4354     | 2.4923     | 3.4188     |  35.6 | 60.23
Bond    | 0.0062378  | 0.010649   | 0.020958   |   2.6 |  0.26
Neigh   | 0.090907   | 0.091167   | 0.091412   |   0.1 |  2.20
Comm    | 0.29308    | 1.2179     | 2.2738     |  51.0 | 29.43
Output  | 0          | 0          | 0          |   0.0 |  0.00
Modify  | 0          | 0          | 0          |   0.0 |  0.00
Other   |            | 0.3257     |            |       |  7.87

Nlocal:        47.3125 ave          65 max          28 min
Histogram: 2 2 4 1 6 4 4 5 3 1
Nghost:        2000.47 ave        2060 max        1953 min
Histogram: 3 4 3 7 1 2 6 2 2 2
Neighs:        5011.09 ave        6972 max        2765 min
Histogram: 2 3 3 1 4 7 2 2 5 3

Total # of neighbors = 160355
Ave neighs/atom = 105.91480
Ave special neighs/atom = 2.0317041
Neighbor list builds = 92
Dangerous builds = 0

# MD simulation
velocity all create 300.0 12345 rot yes dist gaussian
timestep 1.0
fix 2 all nvt temp 300.0 300.0 1

# Compute interaction energy
group WAT molecule <> 2 501
1500 atoms in group WAT
group MOL molecule 1
14 atoms in group MOL

compute w WAT group/group MOL pair yes
fix 3 all ave/time 10 5 100 c_w file outa

# Outputs
thermo 100 # Output thermodynamic data every nth step
#dump mf1 all xyz 10000 mol_*.xyz

# Run
run 1000000
Neighbor list info ...
  update every 2 steps, delay 10 steps, check yes
  max neighbors/atom: 10000, page size: 100000
  master list distance cutoff = 13
  ghost atom cutoff = 13
  binsize = 6.5, bins = 6 6 6
  4 neighbor lists, perpetual/occasional/extra = 3 1 0
  (1) pair hbond/dreiding/lj, perpetual, skip from (4)
      attributes: full, newton on
      pair build: skip
      stencil: none
      bin: none
  (2) pair lj/cut, perpetual, half/full from (4)
      attributes: half, newton on
      pair build: halffull/newton
      stencil: none
      bin: none
  (3) compute group/group, occasional, copy from (2)
      attributes: half, newton on
      pair build: copy
      stencil: none
      bin: none
  (4) neighbor class addition, perpetual
      attributes: full, newton on
      pair build: full/bin
      stencil: full/bin/3d
      bin: standard
Per MPI rank memory allocation (min/avg/max) = 12.31 | 12.37 | 12.86 Mbytes
Step Temp E_pair E_mol TotEng Press Volume 
    4984          300   -912.45993    29.850073    470.37982    1511.2569    37401.237 
    5000    329.48963   -884.13437    298.41407    900.26659    739.90546    37401.237 
    5100    299.24828   -1032.5144    205.35254    522.43755    -299.1548    37401.237 
    5200    295.71991   -1000.3316    156.08709    489.44215    259.90841    37401.237 
    5300    313.18383   -1052.5999    220.74554      580.594    147.31021    37401.237 
    5400    299.47659   -1011.4642    203.13857    542.30348    378.56279    37401.237 
    5500    292.26625   -1025.3564    200.09298    492.84729     1012.059    37401.237 
    5600    299.36048   -1056.5183    183.41928    477.00648    1002.5301    37401.237 
    5700    302.12638   -1096.8104    195.61651    461.38566    181.97339    37401.237 
    5800    303.92361   -1086.5424    202.05675    486.19934    725.91829    37401.237 
    5900    281.05429   -1085.1016    208.32661    390.77022    301.86167    37401.237 
    6000    304.71821   -1093.5386    210.39405    491.12409    275.55409    37401.237 
    6100    306.34051   -1048.1348    201.98649    535.43685     432.3303    37401.237 
    6200    300.89379   -1084.7243    199.15521    471.45152    252.09731    37401.237 
    6300    292.91784   -1070.5876    217.73935    468.20109     166.1002    37401.237 
    6400    304.74953    -1056.314     209.6664    527.76233    506.49544    37401.237 
    6500    300.49174   -1077.2225    214.52202    492.50692    74.632072    37401.237 
    6600    300.14796   -1073.9404    216.82516    496.54171   -97.939704    37401.237 
    6700    302.35114   -1063.0585    215.78851    516.32329    72.192132    37401.237 
    6800     313.2097   -1064.9556    208.78636    556.39576    104.20072    37401.237 
    6900    301.59253   -1064.3993    226.80329    522.57594    609.36003    37401.237 
    7000    292.49981   -1090.0614    217.43137    446.53404    389.68365    37401.237 
    7100    298.66679   -1081.1552    218.08421    483.90593    154.86053    37401.237 
    7200      301.107    -1094.109    232.18725    496.06042    654.96298    37401.237 
    7300    286.13423   -1091.3691    219.26323    418.34964    426.16581    37401.237 
    7400    299.29245   -1055.0176    217.64989    512.43099    245.71082    37401.237 
    7500     287.7089   -1086.5216    237.69439    448.73009    305.32473    37401.237 
    7600    300.28064   -1074.4789    249.63117     529.4076    635.22229    37401.237 
    7700    298.87472   -1082.4015    229.96243    495.47568    272.70043    37401.237 
    7800    307.16398   -1091.2228     226.7999    520.87606    336.19136    37401.237 
    7900    299.13586   -1061.7413     233.6562    521.00739    491.66768    37401.237 
    8000    303.73902   -1065.6812    226.74488     530.9162    678.91875    37401.237 
    8100    301.69339   -1095.8669    239.25599    504.01595    533.05837    37401.237 
    8200    302.10128   -1057.6531    231.95332    536.76664    961.21909    37401.237 
    8300    296.62443   -1138.7677    231.30031    430.29863    365.59801    37401.237 
    8400    308.99013    -1100.113    236.52648    529.94831    443.42351    37401.237 
    8500    291.33111   -1113.5632    229.20589    429.53594    578.04956    37401.237 
    8600    296.64162    -1117.584    247.65771    467.91721    26.416715    37401.237 
    8700    293.99993    -1127.717    242.96376    441.17634    604.13159    37401.237 
    8800    307.42386   -1128.5324    239.84073    497.77938    398.64806    37401.237 
    8900    303.56323   -1131.1182    244.66683    482.60837     404.9745    37401.237 
    9000    298.73791   -1117.8233    247.94397    477.41835    318.07228    37401.237 
    9100    289.48276   -1112.0018    247.04996    440.60543    64.421974    37401.237 
    9200    299.70962   -1090.2204    250.08982    511.54952    411.83442    37401.237 
    9300    292.65347    -1109.324    244.45687    454.98996    597.37118    37401.237 
    9400    296.99368   -1112.3755    257.02329    484.07904    802.05728    37401.237 
    9500    290.72747   -1102.3905    262.09264    470.87303    705.60749    37401.237 
    9600    294.41038   -1088.2507    264.90442     504.4344    463.14318    37401.237 
    9700    306.94814   -1088.3293    256.24069    552.23696    640.14466    37401.237 
    9800    300.40096   -1068.5531    255.81503    542.05996    463.30563    37401.237 
    9900    296.73419    -1072.259    257.79405    523.79602   -133.25209    37401.237 
   10000    297.42448   -1079.9989    255.82902    517.20428     -11.5634    37401.237 
   10100    293.26094    -1139.919    249.78416    432.46189    97.068187    37401.237 
   10200    295.59656   -1102.5181    263.53686    494.14913    229.23341    37401.237 
   10300    309.78046   -1115.4419    243.77557    525.43295     321.7912    37401.237 
   10400    303.27214   -1113.6823    260.81277    514.87736    579.71304    37401.237 
   10500     306.1392   -1092.4598    253.45491    541.67241    439.85804    37401.237 
   10600     301.5942   -1093.0976    268.75279    535.83464    712.88343    37401.237 
   10700    311.69947   -1153.9257    261.13472    512.96296     103.7342    37401.237 
   10800     305.2396   -1158.1187    262.21212    480.71347    495.85812    37401.237 
   10900     301.3905   -1149.9858    272.19756    481.47253      307.986    37401.237 
   11000    298.96139   -1136.7066    264.25113    475.85016    232.60333    37401.237 
   11100    310.40137   -1166.9983     250.2691    483.17028    257.27782    37401.237 
   11200    305.80861   -1141.8354    269.21614    506.56701    429.13291    37401.237 
   11300    307.76883   -1127.7675    276.03191    536.29122    478.10179    37401.237 
   11400    302.98662   -1136.7619    259.14098    488.83832    151.33027    37401.237 
   11500    312.03072   -1140.2572    280.86847    547.85907   -191.80356    37401.237 
   11600    295.20004   -1170.6343    259.02557    419.73336   -123.56148    37401.237 
   11700    292.06952   -1171.7448    272.12409    417.60278   -175.60595    37401.237 
   11800    295.26028   -1172.0079     264.9058    424.51165    171.34824    37401.237 
   11900    288.63641   -1165.4029    255.89275    392.23016    143.58335    37401.237 
   12000    302.26386   -1157.5696    283.00418    488.63418   -147.19718    37401.237 
   12100    289.44193   -1168.4281    284.20879    421.15389    371.52839    37401.237 
   12200    293.89056   -1151.2413    271.04161    445.23663    472.65876    37401.237 
   12300    296.32983   -1180.6565    286.89609    442.67692    527.90995    37401.237 
   12400    296.95612   -1194.3178    274.51588    419.45998   -160.12781    37401.237 
   12500    309.08575   -1180.0136    282.39316    496.34564     -86.3934    37401.237 
   12600    306.11066   -1203.7082    281.15986    458.00018    54.590782    37401.237 
   12700    310.88102   -1175.9911    290.01065    516.08225    19.118367    37401.237 
   12800    288.61029   -1105.5815    292.96381    489.00475    155.40837    37401.237 
   12900    301.42644   -1131.9686    300.72697    528.18128    589.63955    37401.237 
   13000    303.81321   -1127.0462    296.98571    540.12659    700.20031    37401.237 
   13100    302.02302   -1140.7882    285.89897    507.22416     283.6075    37401.237 
   13200    310.95309   -1107.7575     306.7118    601.34206    738.51327    37401.237 
   13300    306.29961    -1083.551     282.3511    580.20082    615.30162    37401.237 
   13400    311.05546   -1128.4256    315.74645    590.17026    551.75226    37401.237 
   13500    296.44811   -1129.0112    316.97254    524.93209    473.22944    37401.237 
   13600    304.43916   -1135.2925    288.24848    525.96608    350.23863    37401.237 
   13700    294.32049   -1153.9755     299.1236    472.52333   -43.626851    37401.237 
   13800    302.57036   -1099.4513    304.14285    569.27344     326.8894    37401.237 
   13900    302.04521   -1078.5688    294.33946    577.98416    119.87831    37401.237 
   14000    302.92414   -1145.8416    317.62334    537.95917    303.02563    37401.237 
   14100    290.26894   -1186.7746     289.4399    411.76823   -377.35937    37401.237 
   14200    297.95619   -1162.0158    280.17945    461.93579    132.42685    37401.237 
   14300    302.74226   -1177.8909    314.67472    502.14098    128.84343    37401.237 
   14400    346.46268   -1167.5753     290.9211    685.88059     800.4633    37401.237 
   14500    298.67891   -1139.8859    303.75686    510.90254    498.86115    37401.237 
   14600    292.29266   -1162.3872    307.06792    462.91059    92.600365    37401.237 
   14700    297.02358   -1213.2333    289.85491    416.18776    415.41179    37401.237 
   14800    284.02057   -1141.9766    300.92517     439.8716    75.928016    37401.237 
   14900    292.71359   -1141.4104    304.74558    483.46342   -138.43427    37401.237 
   15000    311.93186   -1163.8216    296.30145    539.28182   -201.63008    37401.237 
   15100    290.69446   -1136.0454    303.22857    478.20518    96.631029    37401.237 
   15200    290.89894   -1155.6221    317.78134    474.10342   -205.37025    37401.237 
   15300    307.88739   -1164.8473    298.09333    521.80759    233.94886    37401.237 
   15400    305.30049   -1162.3214    308.35306    522.92633    378.41258    37401.237 
   15500    303.50077   -1191.4831    311.95593    489.25083    209.48316    37401.237 
   15600    284.07446   -1142.7593    308.48627    446.89304    631.96633    37401.237 
   15700    295.53025   -1178.9803    298.83058    452.68154    297.85214    37401.237 
   15800    308.42149   -1157.2299     304.3204    538.06078     11.02481    37401.237 
   15900    303.02451   -1156.8438     297.6407    507.42698    595.22955    37401.237 
   16000    299.34792   -1169.7373    293.27879    473.59035    308.13507    37401.237 
   16100    297.21546   -1155.4066    304.15011    489.17501    284.59136    37401.237 
   16200    297.93591   -1174.9972    303.39422    472.07772    488.37039    37401.237 
   16300    299.80957   -1178.1207    299.22439    473.23455    407.55083    37401.237 
   16400     296.7969   -1198.8401    306.35975     446.0634    120.89982    37401.237 
   16500    300.90656    -1193.453     304.6202    468.24539   -81.834377    37401.237 
   16600    305.83139   -1181.3286    313.77431    511.73471    227.66882    37401.237 
   16700    294.59713   -1153.8679    300.70796      475.463    75.697757    37401.237 
   16800    300.69974   -1162.1566    325.81035    519.79923    87.600069    37401.237 
   16900    306.25408   -1145.8659    305.86235    541.19182    541.84839    37401.237 
   17000    313.46644   -1176.0134    296.76737    534.47687     337.6842    37401.237 
   17100    310.62344   -1160.0911    330.25758    571.06751    324.69952    37401.237 
   17200    292.90321   -1186.7636    320.46856    454.68837    224.22374    37401.237 
   17300    288.70952   -1180.8179    304.39041     425.6425    319.71441    37401.237 
   17400      304.269   -1179.3237    319.79201    512.71103   -10.755489    37401.237 
   17500    303.03108   -1122.4436    310.75124    554.96739   -17.679261    37401.237 
   17600    295.82053   -1162.2521     316.3057    488.19397    69.955916    37401.237 
   17700    298.34664   -1149.2826    309.14018    505.39073   -76.601093    37401.237 
   17800    309.00515   -1188.5876    329.16457    534.17953   -328.52638    37401.237 
   17900    303.87486   -1205.8582     305.7219     470.3289   -586.77044    37401.237 
   18000    299.90525   -1197.8553    313.45902     468.1661   -71.415662    37401.237 
   18100    304.18525   -1222.6836    338.76275    487.94414    8.8233999    37401.237 
   18200    291.86263   -1172.2391    319.83317    463.88454   -61.003933    37401.237 
   18300    292.52845   -1177.0998    316.89298    459.08638    186.58222    37401.237 
   18400    299.63649   -1196.1907    332.33838    487.49788    205.05027    37401.237 
   18500    301.99355   -1186.3313    330.17223    505.82147    547.64316    37401.237 
   18600    309.03219   -1187.4363     308.8374    515.12566    292.05359    37401.237 
   18700    299.28345   -1212.6912    315.35397    452.42082    469.28281    37401.237 
   18800    300.35426   -1192.5402    345.27872    507.32587    690.26308    37401.237 
   18900    306.36506   -1183.0037    325.19509    523.88733    744.71196    37401.237 
   19000    298.70105   -1189.2718    317.36425    475.22391    784.31444    37401.237 
   19100    300.93359   -1194.3801    327.57216    490.39216    276.52667    37401.237 
   19200    299.30694   -1214.5629    323.17416    458.47531    372.50341    37401.237 
   19300    306.00663   -1201.7534    320.83778     499.1638    118.76224    37401.237 
   19400    303.22414   -1181.5989    318.22603    504.15754    300.94392    37401.237 
   19500    298.79608    -1179.034    327.38201      495.908    137.17236    37401.237 
   19600    287.61254   -1198.2139    333.51835    432.42718    292.81526    37401.237 
   19700    297.75914   -1189.1269    305.09996    458.85657    732.87738    37401.237 
   19800    309.58878   -1230.7885    317.30448    482.75069    512.13069    37401.237 
   19900     301.2545    -1206.245    327.10641    479.50888    538.11536    37401.237 
   20000    302.03739   -1187.6059    323.32502    497.89738    329.68196    37401.237 
   20100    299.28764   -1185.1823    326.43185     491.0265    750.70219    37401.237 
   20200    287.54712   -1196.5348     334.4193    434.71211   -99.322728    37401.237 
   20300    295.61554   -1183.7165    326.21266    475.71205    266.11566    37401.237 
   20400    292.42967   -1200.9084    346.86215    464.80147   0.31321038    37401.237 
   20500    291.24458   -1235.0559    355.95517    434.40227    190.66725    37401.237 
   20600    287.52107   -1200.7133    317.93175    413.92856    271.61182    37401.237 
   20700    301.54518   -1218.2132    321.63347     463.3787    138.28354    37401.237 
   20800    304.11148   -1190.8159    359.90428    540.62065    214.68957    37401.237 
   20900    292.36297   -1214.1201    333.33504    437.76184    -62.12718    37401.237 
   21000    303.26835   -1222.1503    327.44272    473.02222     212.4822    37401.237 
   21100    297.34914   -1168.8473    328.43823    500.62529    365.68352    37401.237 
   21200    312.72151   -1215.7659     346.9018    541.49915    439.65238    37401.237 
   21300    310.84162   -1218.9923    333.17799    516.07064    60.290815    37401.237 
   21400    314.56588   -1185.4856    339.40234    572.59804    154.60953    37401.237 
   21500    293.66409   -1218.9819    357.65992    463.09291   -16.496901    37401.237 
   21600    297.17785   -1213.9407     333.6944     460.0156    -273.2421    37401.237 
   21700     303.1261   -1203.4058      319.443    483.12546   -119.69071    37401.237 
   21800    299.94733   -1233.2747    344.77183     464.2493   -280.54859    37401.237 
   21900    293.00523   -1246.5354    335.15405    410.06218   -141.80424    37401.237 
   22000    305.65116   -1211.9935    318.25891     484.7416   -222.95024    37401.237 
   22100    299.45666   -1180.9983    338.46224    508.00318    511.82334    37401.237 
   22200    319.93045   -1227.1075    338.18113    553.94899    1028.7423    37401.237 
   22300    301.72888   -1228.9428    332.66186    464.50591    415.13434    37401.237 
   22400     306.7575   -1144.5956    349.81161    588.68179    478.32329    37401.237 
   22500    288.92842   -1162.7349    345.20047     485.5228    111.12975    37401.237 
   22600    298.77263   -1149.8197    352.95369    550.58829    234.19419    37401.237 
   22700    291.76687   -1168.0647    339.63019    487.42407    191.91738    37401.237 
   22800    303.10012   -1167.0931    346.65862    546.53662    322.99477    37401.237 
   22900    302.31194   -1195.0459    345.81612    514.18666    484.74139    37401.237 
   23000    300.45584   -1251.3628    338.68327    442.36593    29.308889    37401.237 
   23100    294.53699   -1193.5029    345.70704    480.55578    596.68683    37401.237 
   23200    303.39305   -1175.8205    349.52567    541.99733    811.88705    37401.237 
   23300    307.55044   -1223.0492    328.01929    492.01197      266.718    37401.237 
   23400    304.00176    -1230.001    333.49158    474.52804    479.11041    37401.237 
   23500    298.73067   -1196.0678    344.47428    495.67156     331.2728    37401.237 
   23600    306.13078   -1221.3437    334.03575    493.33139    341.95205    37401.237 
   23700    306.62535    -1276.465    337.26277    443.66752    233.37706    37401.237 
   23800    303.92511   -1277.0421    314.94802    408.59772    234.97003    37401.237 
   23900    296.05899   -1232.3184    339.14643    442.04384    279.09385    37401.237 
   24000    305.85185   -1255.4047    328.10796    452.08462    -26.76971    37401.237 
   24100    299.88001   -1241.0536    374.35608      485.751    357.57892    37401.237 
   24200    304.21313   -1266.2245    345.52144    451.28772   -6.9743017    37401.237 
   24300    300.20191   -1220.9237    349.56543    482.54198    99.152079    37401.237 
   24400    302.81354   -1218.8137    347.13863    494.00357    107.11032    37401.237 
   24500     299.2883   -1262.0191    331.96806     419.7289    483.55532    37401.237 
   24600    292.46555   -1254.0761    345.66766    410.60115    257.39481    37401.237 
   24700    305.26401   -1250.9643    345.46885    471.23472     650.3771    37401.237 
   24800    294.16145   -1272.2066    342.79491    397.24631   -33.614389    37401.237 
   24900    299.97785   -1231.7692    340.05209    461.17268    581.97457    37401.237 
   25000    291.19022   -1229.8862     341.9844    425.35607    626.26613    37401.237 
   25100    277.89436   -1251.2755    355.12793    357.14644   -135.86296    37401.237 
   25200    308.45572   -1230.2885    349.39476    510.23099    284.78015    37401.237 
   25300    299.11901   -1277.8795    344.12116    415.25807    243.84579    37401.237 
   25400    296.83775    -1289.296    357.39007     406.8221    355.52635    37401.237 
   25500    304.60148   -1286.8209    327.08495    414.00623       325.14    37401.237 
   25600    293.89656   -1247.6904    342.18286    419.95588    511.99952    37401.237 
   25700    303.20088   -1261.0828    340.14974    446.49244    169.05574    37401.237 
   25800    301.52027   -1271.0068    344.07144     432.9107   -205.98163    37401.237 
   25900    304.41472   -1262.7395    342.09159    452.25195   -308.30104    37401.237 
   26000    301.03162   -1257.8159    334.53766    434.36404    616.70669    37401.237 
   26100    292.10833   -1245.1544    356.98906    429.23321    692.07424    37401.237 
   26200    299.15975   -1222.1805     359.8061     486.8258    736.78423    37401.237 
   26300      301.521   -1248.9932    347.29653    458.15271    368.09979    37401.237 
   26400    297.95224   -1276.3459     358.6067     426.0152   -71.302079    37401.237 
   26500    291.86089   -1226.4202    355.80833    445.67073    99.118787    37401.237 
   26600    304.72047   -1258.8767     340.4502    455.85232    47.531374    37401.237 
   26700    305.67148   -1235.2346    353.59625     496.9295    871.78044    37401.237 
   26800     302.7031   -1239.5042    347.45082    473.12718    423.78396    37401.237 
   26900    297.76753   -1233.4087    362.53615    472.04873    40.088303    37401.237 
   27000    302.12218   -1240.2022    347.48417     469.8426    379.68171    37401.237 
   27100    306.32162   -1228.8292    367.55051    520.22124    160.52408    37401.237 
   27200    301.10455   -1239.9265    343.34701    461.39162    28.533993    37401.237 
   27300    299.08552   -1240.0417    360.30018     469.1239    282.05734    37401.237 
   27400    301.51683    -1229.411    354.84788    485.26741    87.061457    37401.237 
   27500    306.77724   -1214.5525      365.514    534.51626      322.708    37401.237 
   27600    311.10038   -1212.7845    374.25453    564.52203    181.85273    37401.237 
   27700    311.48461   -1211.7697    368.96886    561.98405  -0.82975736    37401.237 
   27800    310.31898   -1243.9598    350.26296    505.83107    431.74742    37401.237 
   27900    304.57259   -1267.3504    349.46752    455.72908    174.09453    37401.237 
   28000    310.94659   -1250.8368    365.79177    517.31336   -182.41998    37401.237 
   28100     297.3986   -1280.3929     346.7797    407.64419   -178.73666    37401.237 
   28200    298.15125   -1283.1547    360.13262    421.62982    334.67547    37401.237 
   28300    292.22705   -1228.5824    382.57081     471.9224    45.324636    37401.237 
   28400    291.88112   -1262.5279    356.80544    410.65132   -58.256622    37401.237 
   28500     295.2246   -1291.9986    354.55256     394.0068    469.87337    37401.237 
   28600    296.21568    -1316.934    349.45488    368.44339    26.802608    37401.237 
   28700    303.49695   -1296.1389    371.18228    443.80418    66.251406    37401.237 
   28800    304.12894   -1247.7461    369.55369    493.41862    408.81792    37401.237 
   28900    298.31264    -1220.067    364.24242    489.55521    142.04669    37401.237 
   29000    293.21064   -1196.7708    364.90477    490.50387    336.63143    37401.237 
   29100      291.986   -1179.6839     397.3046    534.46752    805.82379    37401.237 
   29200     293.8359   -1214.0304    377.21582    488.37525    567.21388    37401.237 
   29300    295.38024   -1186.9679    371.72749    516.91432    276.46895    37401.237 
   29400     298.7139   -1154.1077    387.71406    580.79578     386.3155    37401.237 
   29500    301.27134   -1186.8821    370.55485    542.39617    373.76986    37401.237 
   29600    301.22999   -1187.8072    364.92778    535.65747    942.98205    37401.237 
   29700     293.2889   -1186.8655    371.51664    507.37397    259.62957    37401.237 
   29800     297.1137    -1210.688    370.37916    499.66374    212.99617    37401.237 
   29900    299.77093   -1227.2865    365.89496    490.56504     523.7276    37401.237 
   30000     306.3528   -1204.9911    382.57301     559.2225    158.53108    37401.237 
   30100     309.1853   -1210.4184    368.50855    552.50518    627.46695    37401.237 
   30200    302.89088   -1277.2389    364.43901    453.22763    268.08198    37401.237 
   30300    295.29025   -1276.9173    383.06512    437.89673    219.66303    37401.237 
   30400    310.97489   -1292.7659    368.46295    478.18309   -153.43604    37401.237 
   30500    299.78017   -1208.5404    373.28027    516.73811    530.40546    37401.237 
   30600      298.158   -1266.4502    378.86993    457.10211    361.59717    37401.237 
   30700    312.37694    -1251.838    346.03688    503.00811    623.89301    37401.237 
   30800    293.91887    -1228.421    347.29428    444.43724    437.44371    37401.237 
   30900    299.69672    -1213.065    370.32417    508.88108   -21.530265    37401.237 
   31000    303.43823   -1212.3145    369.07513    525.25658    224.28854    37401.237 
   31100    299.14616   -1221.8823     354.4247    481.68127     422.3405    37401.237 
   31200    302.88957   -1214.9636    362.67983    513.73782    291.26172    37401.237 
   31300    308.65621   -1230.5558    373.43956    534.91262    770.87099    37401.237 
   31400    313.06375   -1243.8208    381.54038    549.62636    347.14968    37401.237 
   31500    298.72988    -1207.229    373.52395    513.55641    566.73238    37401.237 
   31600    293.32533   -1227.1657    380.71708    476.43851    860.72269    37401.237 
   31700    296.35939   -1211.9444      379.888    504.51423    481.49369    37401.237 
   31800    309.75749   -1264.8979    362.93479    495.03252    905.52241    37401.237 
   31900    300.02972   -1204.5034    366.96778    515.58808    896.33412    37401.237 
   32000    288.80452   -1229.1038    362.66372    436.05839    878.74332    37401.237 
   32100    299.54537   -1199.8216    374.44699    525.56474    617.38391    37401.237 
   32200    307.35435   -1175.8977    375.83833    586.09811    615.34953    37401.237 
   32300    303.88323   -1226.2438    364.95492    509.21406    20.218465    37401.237 
   32400    307.96573   -1243.4715    394.01885    539.46224    587.48258    37401.237 
   32500    302.58167   -1217.1198    377.74264    525.25576    571.31496    37401.237 
   32600    308.45998   -1199.0696    391.58233    583.65662    337.01706    37401.237 
   32700    300.76655   -1250.1503    381.97743    488.27394    377.56839    37401.237 
   32800    286.03917   -1218.0224    433.33665    505.34103    417.38425    37401.237 
   32900    303.28217   -1279.0117    384.85648     473.6369    480.44412    37401.237 
   33000    295.83419   -1250.0011    399.19411    483.39506    808.38044    37401.237 
   33100     310.6599   -1234.9318    385.29974    551.43345    827.86549    37401.237 
   33200    309.44408   -1280.8906    381.92669    496.61823    1054.6516    37401.237 
   33300    298.12643   -1264.5948    404.60862    484.55376    508.77779    37401.237 
   33400    293.59161   -1266.3053    385.86109    443.64383    563.82933    37401.237 
   33500    299.79993   -1275.7589    372.31265    448.64115   -244.67714    37401.237 
   33600    304.62837   -1287.5181    378.14483    464.49024   -223.51049    37401.237 
   33700    301.03362   -1277.2322    379.99562    460.41464   -65.846395    37401.237 
   33800    301.65433   -1268.0868    399.25599    491.61989     -748.379    37401.237 
   33900    307.84854   -1271.2589     368.4262    485.55367   -415.25766    37401.237 
   34000    300.64106   -1273.6608    357.21258     439.4326   -263.30408    37401.237 
   34100    292.14651   -1275.0711    383.08079    425.58038   -394.88047    37401.237 
   34200    293.93414   -1235.9752    357.95157     447.6092    202.72718    37401.237 
   34300    298.13804   -1239.7634    392.20333    497.03229    505.12872    37401.237 
   34400    289.86056    -1230.992    396.09992    472.36913    569.77073    37401.237 
   34500    294.79962    -1201.882    392.61783      520.272    992.60772    37401.237 
   34600    300.95126   -1235.2588    382.84721     504.8682    733.34272    37401.237 
   34700    298.87649   -1188.0693    382.27137    542.12477   -131.66161    37401.237 
   34800    307.00891   -1205.3666    378.76981    558.00279    771.71589    37401.237 
   34900    302.72431   -1244.5078    387.62196    508.39041    230.81334    37401.237 
   35000    289.21797   -1230.5208    388.19959    462.04192   -219.48024    37401.237 
   35100     309.1251   -1233.4674    376.58041    537.25661    446.88624    37401.237 
   35200    307.97817   -1192.1763    393.24719    590.04184    14.151094    37401.237 
   35300    310.26593   -1230.3381    382.46265    551.41327    137.87124    37401.237 
   35400    305.77918   -1275.9509    391.53644     494.6391    604.79523    37401.237 
   35500    303.91134   -1260.4941    384.04309    494.17869    23.718332    37401.237 
   35600    307.88398   -1286.6568    394.53487    496.42418    40.119849    37401.237 
   35700    301.42414   -1265.8975    374.30506    467.82003     452.9768    37401.237 
   35800    296.59318   -1231.5149    365.17207    471.28221    59.456888    37401.237 
   35900    295.41768   -1266.7489    371.70483    437.27946   -195.16926    37401.237 
   36000     307.5879   -1229.0762      393.799    551.93366    475.26566    37401.237 
   36100    292.56821   -1263.8348    379.77863    435.41643   -260.49896    37401.237 
   36200    291.23612   -1247.7125    378.87393    444.62629    534.48132    37401.237 
   36300    299.79912    -1243.761    390.52605    498.84881     124.3485    37401.237 
   36400    298.50024   -1283.6065    385.46549    448.08484    602.09514    37401.237 
   36500    295.66236   -1249.7705    388.63736     472.2939      104.508    37401.237 
   36600    297.29118   -1279.9887    391.26673    452.05103    137.14708    37401.237 
   36700    301.77143   -1257.0067    387.60094      491.573    279.88571    37401.237 
   36800    297.28853   -1252.3326    376.09076    464.51916    710.83729    37401.237 
   36900    297.84764   -1256.5411    382.54035    469.28189    455.36181    37401.237 
   37000    296.62715   -1271.1172    393.42736    460.08837    1210.4501    37401.237 
   37100    307.79555   -1288.3485    381.37385    481.17267    625.98184    37401.237 
   37200    303.95513   -1293.5376    364.81658    442.10615    498.23032    37401.237 
   37300    299.29459   -1323.0034    377.83358    404.63851    419.80052    37401.237 
   37400    294.75274   -1274.3746    385.67463    440.62475    142.01898    37401.237 
   37500    296.63049   -1273.5874    366.70255    430.90847    1069.7698    37401.237 
   37600    296.63399    -1236.465    368.28057    469.62467     19.94244    37401.237 
   37700    310.62598    -1252.175    394.55632    543.29382    224.63601    37401.237 
   37800     288.4284     -1283.87    399.27805    416.21026    337.20723    37401.237 
   37900    295.73102   -1277.2969    398.77217    455.21194    332.23453    37401.237 
   38000      305.357   -1246.9173    385.04899    515.28127    193.34194    37401.237 
   38100    294.04924   -1286.1406    399.23153    439.24291    22.873654    37401.237 
   38200    294.16062   -1235.7261    402.96128    493.88947    455.20018    37401.237 
   38300    296.35928   -1256.0951    408.36402     488.8391    332.84308    37401.237 
   38400    297.27645   -1268.0304     373.8693     446.5455    848.18828    37401.237 
   38500     296.9099   -1218.6024    390.42271    510.87369    223.49684    37401.237 
   38600    309.74871   -1296.6075    383.54836     483.8969    177.79802    37401.237 
   38700    291.30724   -1222.1917    392.72381    484.31769   -202.14709    37401.237 
   38800     296.4134   -1184.3131     381.8515     534.3526   -176.49502    37401.237 
   38900    289.46869   -1220.1103    385.14641    470.52992   -575.93316    37401.237 
   39000     287.2061    -1267.045    404.96584    433.21049   -343.43664    37401.237 
   39100    302.77854   -1251.4285    399.82523    513.91759   -137.87767    37401.237 
   39200    288.22739      -1285.5    392.15446    406.55002    196.39958    37401.237 
   39300    292.38082   -1312.2304    375.51977    381.91686    271.65071    37401.237 
   39400    299.49656   -1257.3432    406.45595    499.83196   -412.88193    37401.237 
   39500    294.15554   -1284.5188    402.71439    444.82692   -15.319844    37401.237 
   39600    304.08696   -1276.5725    405.64943    500.49861    40.739479    37401.237 
   39700    305.63879   -1300.2813    390.08303    468.22217    187.39375    37401.237 
   39800     309.5584   -1236.9565     392.4383    551.57952    246.63301    37401.237 
   39900    310.73854   -1259.7746    399.89335    541.53891     470.7525    37401.237 
   40000    308.84944   -1298.0383     423.1985    518.06055   -9.3768548    37401.237 
   40100    297.12264   -1260.1511    402.86658    482.72839    160.56457    37401.237 
   40200    305.44799   -1250.9343    394.48809    521.11379    96.029065    37401.237 
   40300    294.53591    -1244.419    408.69909    492.62697   -290.83265    37401.237 
   40400    304.70266   -1229.9906    390.41063    534.61851   -18.367998    37401.237 
   40500    298.54398   -1226.1144    377.59473    497.90342   -29.666601    37401.237 
   40600    301.79017   -1247.7901     388.0654    501.33859   -476.05346    37401.237 
   40700    301.82778   -1231.7436    391.21872    520.70804    249.01467    37401.237 
   40800     304.5748   -1213.5409    391.42368    551.50468    51.845595    37401.237 
   40900    306.71755   -1259.6864    405.32305    528.92221    16.604222    37401.237 
   41000    320.71989   -1239.6965    427.55578    634.29492    448.61005    37401.237 
   41100    305.99893   -1273.5829    394.38363    500.84535    251.64306    37401.237 
   41200    292.55166   -1244.9708    409.17463    483.60178    47.212239    37401.237 
   41300    302.62805   -1259.5116    390.37516    495.70569   -139.36892    37401.237 
   41400    301.47553   -1204.7302    414.45811    569.37214   -434.46103    37401.237 
   41500     301.8906   -1241.3561    406.97171    527.13182    -210.7845    37401.237 
   41600    299.91265   -1269.8575    412.43414    495.17241   -339.07663    37401.237 
   41700      299.233    -1214.118     399.9704    535.38287    326.56774    37401.237 
   41800    299.48307   -1251.5983    419.20255    518.26263    225.06268    37401.237 
   41900    305.76314   -1250.1783    390.95854    519.76143     708.3656    37401.237 
   42000    301.51388   -1263.9414    415.18079    511.05661    241.38592    37401.237 
   42100    295.65113    -1266.593    397.03371    463.81718    130.85682    37401.237 
   42200    303.38941   -1275.6747    392.53843     485.1395   -30.379501    37401.237 
   42300    303.29477   -1240.1208    405.25147    532.97969    383.01808    37401.237 
   42400    303.78758   -1252.7574    414.28287    531.59699    756.24147    37401.237 
   42500    296.42717   -1263.2749    405.82572    479.42715    722.39141    37401.237 
   42600    288.94891   -1250.5747    405.12668    457.70161    290.51668    37401.237 
   42700    299.74216   -1295.8644    397.54912    453.51156    315.11978    37401.237 
   42800    300.14032   -1247.0369    404.39738    510.98304     60.18384    37401.237 
   42900    304.12367   -1309.9681     438.2473    499.86652    971.89544    37401.237 
   43000     303.6525    -1268.513    410.35761    511.30691    477.90067    37401.237 
   43100    297.03189   -1291.7433    426.72625     474.5866    671.29906    37401.237 
   43200    287.34087   -1355.5136    412.46299    352.84683    460.29648    37401.237 
   43300    293.92254   -1314.9032    417.11524     427.7926    934.85743    37401.237 
   43400    302.64486   -1286.6404    422.21042    500.48789    990.39227    37401.237 
   43500    293.52386     -1283.44    432.95013    473.29262    944.81902    37401.237 
   43600    293.50495   -1268.9709    423.31754    478.04386    843.10885    37401.237 
   43700    295.46462   -1293.7983     415.8309    454.56789    377.24986    37401.237 
   43800    290.20343   -1294.8708    423.67667    437.61333     699.6264    37401.237 
   43900    301.34897   -1281.0792    396.13931    474.13365    157.96649    37401.237 
   44000    299.90769   -1296.4926    420.93098    477.01179   -154.93784    37401.237 
   44100    296.00888   -1301.4182    404.62911    438.20077    79.764983    37401.237 
   44200    299.45041   -1259.0084    407.96356    499.46627    497.98441    37401.237 
   44300     295.9036    -1295.024     426.4715    465.96253    733.53788    37401.237 
   44400     300.4486   -1331.1724    409.13415    432.97464    720.36104    37401.237 
   44500    300.48894   -1350.5697    413.67648    418.30158    753.85637    37401.237 
   44600    294.52121   -1355.9598    426.87538    399.19611      485.121    37401.237 
   44700    306.32697   -1271.4129    444.86754    554.97876    1232.8822    37401.237 
   44800    310.03189   -1263.5121    444.73486    579.45596    808.42864    37401.237 
   44900    298.66643   -1273.6716    425.12997    498.43366    199.41149    37401.237 
   45000    293.47092   -1284.3661    407.38841    446.56606    133.69226    37401.237 
   45100    294.43369    -1333.168    415.55228    410.27014   -232.05965    37401.237 
   45200    307.31483   -1333.4273    418.47024    471.02226    137.91106    37401.237 
   45300    311.47974    -1341.732    421.04839    484.07932    27.485826    37401.237 
   45400    294.98914   -1351.8261    388.33999    366.90482    -500.8046    37401.237 
   45500    294.16323   -1318.4294    396.38544    404.62208   -364.76262    37401.237 
   45600     303.7121   -1289.3448    431.25563    511.64192   -99.827576    37401.237 
   45700    290.77694   -1297.9166    419.97413    433.45159   -117.98087    37401.237 
   45800    316.79912   -1329.7446    423.26576    522.27426    743.98808    37401.237 
   45900    305.55043   -1294.8951    417.26206    500.38893    364.16607    37401.237 
   46000     299.9043   -1310.9657    407.72882    449.32121    82.697639    37401.237 
   46100    307.74748   -1294.6923    406.85069    500.08895    817.71417    37401.237 
   46200    292.72362   -1322.8323    419.33107    416.67221     596.5805    37401.237 
   46300    290.09994   -1301.9827    415.82632    422.18432    600.76018    37401.237 
   46400    303.60133   -1331.9743     419.6098    456.86708   -2.7838865    37401.237 
   46500    299.99748   -1305.2973    405.90931     453.5903    553.17449    37401.237 
   46600    293.68175   -1330.0464    420.18415    414.63232   -41.376217    37401.237 
   46700    305.61389   -1277.1707    422.78892     523.9263    30.783546    37401.237 
   46800     300.5679   -1301.8437    421.89199    475.59918   -77.308346    37401.237 
   46900    302.19248   -1336.9503    404.63266    430.56006   -4.9612376    37401.237 
   47000    299.75207   -1323.3514    422.22517    450.74535     515.2122    37401.237 
   47100    290.47572    -1307.185    385.74645    388.59697    194.78138    37401.237 
   47200    304.93803   -1342.5093    429.82695    462.57768    439.28876    37401.237 
   47300    302.15675   -1317.1918    418.92125    464.44602    608.21965    37401.237 
   47400    304.91085    -1313.877     417.5622    478.82264    403.56203    37401.237 
   47500    301.02212   -1272.6952    441.18695    526.09115    230.63232    37401.237 
   47600    299.58214   -1334.1487    403.38871    420.34518    106.73606    37401.237 
   47700    300.41391    -1331.163    427.56943    451.26283    408.35902    37401.237 
   47800     300.2596   -1332.4134    426.25828    448.00532     485.1586    37401.237 
   47900    294.85646      -1364.4    422.89599    388.28844    986.31857    37401.237 
   48000    313.67853   -1334.2588    407.34589    487.76643    488.18684    37401.237 
   48100    292.61185   -1327.8053     416.9862    408.85025     144.9322    37401.237 
   48200    304.40987   -1340.2367    429.53378    462.17515    628.79538    37401.237 
   48300    302.80155    -1299.439    409.86156    476.04709    88.738069    37401.237 
   48400    295.15145   -1347.9986    416.37152    399.49582    221.90044    37401.237 
   48500     296.3813    -1334.908    408.12154    409.88301     493.9721    37401.237 
   48600    292.59926   -1318.1311    415.01662    416.49811    337.96755    37401.237 
   48700    294.01576   -1363.8143    414.68269    376.86931    280.23132    37401.237 
   48800    298.24103   -1371.8398    417.49589    390.71285    91.883168    37401.237 
   48900    295.61992    -1348.053    407.39974    392.58242     174.3211    37401.237 
   49000    296.10902   -1321.5013    432.07201    446.01225    373.35624    37401.237 
   49100    296.39721   -1299.7443       421.93    458.92697    508.65973    37401.237 
   49200    301.35302   -1325.8042    415.00586    448.29343     307.6433    37401.237 
   49300    298.85388   -1370.3579    406.62313    384.08598    470.17927    37401.237 
   49400    303.66361    -1364.628    401.49023    406.37464    143.88441    37401.237 
   49500    300.20428   -1321.8189    413.53723    445.62928    139.02392    37401.237 
   49600    295.00557   -1341.4612    421.09671    410.10053   -13.625881    37401.237 
   49700    296.44651   -1350.5866    438.74217    425.11908    259.09003    37401.237 
   49800    291.82996    -1325.342    421.88305    412.68407   -207.61361    37401.237 
   49900    295.94313   -1330.0187    434.61013    439.28474   -31.262147    37401.237 
   50000    303.47213   -1335.3213    437.75832    471.08589   -487.26198    37401.237 
   50100    303.40718   -1335.7961      431.914    464.47382   -404.28911    37401.237 
   50200     304.6858   -1336.8216    424.53061    461.83143    286.28329    37401.237 
   50300    308.85629   -1373.4649    427.37743    446.84375   -81.404659    37401.237 
   50400    303.63371   -1318.9372    428.02531    478.46568    557.24384    37401.237 
   50500    286.69938    -1344.239     424.4332    373.19855    74.361197    37401.237 
   50600    303.94836   -1384.8346    397.07917    383.04126   -174.02206    37401.237 
   50700    306.41219   -1358.7771    419.28941    442.42071   -151.53876    37401.237 
   50800     290.3772   -1391.1598    427.07659    345.50802     112.6991    37401.237 
   50900    306.37525   -1382.9367    411.86208    410.66719    465.77389    37401.237 
   51000    300.91104   -1407.1626    410.22655    360.16244    506.87001    37401.237 
   51100    290.62084   -1402.5995     448.4506    356.54109    49.201307    37401.237 
   51200     304.7864   -1398.5331    450.73924    426.78229    837.84509    37401.237 
   51300    293.83133   -1394.8559    401.00662    331.31991    220.02771    37401.237 
   51400    297.51355   -1372.5096     410.2504    379.51673    173.65227    37401.237 
   51500    316.87212   -1363.7952    406.90869    472.19585    212.64928    37401.237 
   51600    309.66105   -1382.1591    420.43316    434.83469   -575.77384    37401.237 
   51700    290.88153   -1327.9937    414.24095    398.11295    -671.6504    37401.237 
   51800    288.91185    -1319.906    418.90412    401.98061   -135.14737    37401.237 
   51900    306.64727   -1335.0971    441.90036    489.77193   -226.02137    37401.237 
   52000    295.11968   -1322.8213    417.38228    425.54054    17.102712    37401.237 
   52100    298.60646   -1324.6906    435.86132    457.87561   -472.85329    37401.237 
   52200    296.56062   -1334.6186    451.74383    454.60347    -157.4614    37401.237 
   52300    303.43022   -1315.8489    444.26248    496.87339    407.97484    37401.237 
   52400    303.22754    -1342.765    445.92208    470.70284   -24.909655    37401.237 
   52500    301.09866   -1331.2689    442.58537    469.26105    547.87098    37401.237 
   52600    314.47852   -1339.9695    437.72672    516.04457    680.14719    37401.237 
   52700    288.81855   -1388.7383    414.11443    327.93781    500.44431    37401.237 
   52800    300.31257   -1364.5642    408.25882    398.09404    567.65755    37401.237 
   52900    299.89595   -1342.6599    426.05078     435.9113    606.79566    37401.237 
   53000    298.57013   -1307.3504     424.2369    463.42749    472.64914    37401.237 
   53100    303.30187   -1311.1087    430.14087    486.91314     138.3838    37401.237 
   53200     304.2325   -1269.4753    416.66179     519.2646   -4.8102995    37401.237 
   53300    298.25265   -1319.6943    394.38587    419.80077   -740.37051    37401.237 
   53400    295.10204   -1340.1438    410.15676    400.91302    195.30253    37401.237 
   53500    297.80152   -1342.5337    403.61201    404.15295   -350.98272    37401.237 
   53600    299.21222   -1322.3825    457.32245    484.37675   -540.29783    37401.237 
   53700    297.40834   -1341.1624    452.44177    452.58077    205.07416    37401.237 
   53800    297.37965   -1339.4119    449.22865    450.98872    654.66638    37401.237 
   53900    297.86335   -1341.8946    420.28461    421.74348    292.82665    37401.237 
   54000     290.7908   -1359.3972    432.76218     384.8215    33.178146    37401.237 
   54100    305.61772   -1328.5081     415.6028    465.42014    630.54768    37401.237 
   54200    294.32162   -1325.3818    419.00011    420.99867    224.66226    37401.237 
   54300     293.8263   -1303.7068    430.09591    451.53558    141.60048    37401.237 
   54400    296.96844   -1311.4317    407.57553    435.46125   -42.523521    37401.237 
   54500    293.69622    -1369.351    396.25845    351.46736     324.7323    37401.237 
   54600    294.65339   -1348.7568    417.70546    397.82529    49.728307    37401.237 
   54700    296.02244   -1321.8668    415.97685    429.16111   -201.35135    37401.237 
   54800    296.23044   -1316.6435    407.47695    426.82254    145.69475    37401.237 
   54900    293.83147   -1359.2568    420.91751     386.8305   -234.94995    37401.237 
   55000    307.18094   -1337.5158    443.56897     491.4286    129.19649    37401.237 
   55100    303.60343   -1317.7656    438.31112    489.78659   -437.61695    37401.237 
   55200    304.82147   -1324.2081    436.92535    487.45162    166.42621    37401.237 
   55300    297.30141   -1319.1894    422.28299    443.91274    152.74052    37401.237 
   55400    306.94857   -1310.6451    433.66763    507.35001    660.55683    37401.237 
   55500    302.85366   -1316.9998    426.00012    474.85989    191.43727    37401.237 
   55600    285.29141   -1281.8096    433.93108    438.77596   -610.44116    37401.237 
   55700    304.21843   -1277.6292    423.94266    518.32809      162.416    37401.237 
   55800    303.85976   -1289.1283     417.3887    498.65745    254.72094    37401.237 
   55900    293.68851   -1326.6081    424.92614    422.84313    41.791605    37401.237 
   56000    291.80581   -1357.9736    413.15899    371.21951   -145.13706    37401.237 
   56100    310.80277   -1383.2861    418.75701    437.18076   -381.52238    37401.237 
   56200    296.06728   -1342.9556    413.03715    405.33475   -311.87068    37401.237 
   56300    291.47744   -1337.0142    442.89989    420.43891   -383.85744    37401.237 
   56400    291.81171   -1318.6486    421.74802    419.16016   -427.03541    37401.237 
   56500    313.20154   -1316.3406    436.50301    532.69058   -107.23794    37401.237 
   56600    309.72702   -1317.5598    424.55956    503.85795    54.161095    37401.237 
   56700    295.20089   -1335.9047    419.33966    414.78082   -107.17316    37401.237 
   56800    290.34872   -1361.0735    423.18809    371.57732    436.10218    37401.237 
   56900    302.81058   -1338.6308     426.2456    453.28012    28.721281    37401.237 
   57000    307.81719   -1369.4164    426.46672     445.2952    238.98618    37401.237 
   57100    300.79206   -1386.9242     419.5735    389.21109    648.81209    37401.237 
   57200    293.53731   -1356.0101    431.12645    398.95957    471.62218    37401.237 
   57300    292.03852   -1335.2028    405.08782    386.96873    292.92996    37401.237 
   57400    302.87821   -1351.7969    422.54833    436.72178    593.36115    37401.237 
   57500    301.53247   -1339.4937      423.714    444.12131    138.10015    37401.237 
   57600    306.77846   -1355.1065    441.69459    470.14845    147.32072    37401.237 
   57700    301.99849   -1347.3148    413.38872    428.07669   -464.26805    37401.237 
   57800     309.2791   -1336.3605    425.56348    484.04112    115.09564    37401.237 
   57900    310.29912   -1350.4281    412.49315     461.5034   -203.10539    37401.237 
   58000     292.5066   -1327.3688    428.29882    420.12477    71.384953    37401.237 
   58100    307.66682   -1297.2494    427.53277    517.85017    473.43025    37401.237 
   58200    297.19543   -1323.5269    418.36944    435.18371    225.74527    37401.237 
   58300    293.72312   -1296.5304    418.69361    446.84439   -170.57533    37401.237 
   58400    299.68993   -1340.1678    430.51268     441.9362    301.05396    37401.237 
   58500    301.64953   -1326.6633    430.28387    464.04958   -107.69163    37401.237 
   58600    292.55689   -1354.2043    421.60148    386.81876   -345.91207    37401.237 
   58700    286.27914   -1388.9643    413.66049    315.80524    122.93656    37401.237 
   58800      300.307    -1373.656     417.6189    398.33718    302.16414    37401.237 
   58900    302.76711   -1333.4271    423.02573    455.06786    455.98377    37401.237 
   59000    309.10839   -1292.7748    415.24968    516.54309     377.6948    37401.237 
   59100    294.78892   -1326.0488    436.78147    440.22061    958.54337    37401.237 
   59200    309.66764   -1356.6759    441.10862    481.02309    1232.2398    37401.237 
   59300    289.06076   -1323.3936    443.05796    423.31851    29.532767    37401.237 
   59400    302.31348   -1337.5082     449.0983    475.01354   -80.526586    37401.237 
   59500    295.27856   -1319.8617    431.64529    443.47972    163.04876    37401.237 
   59600    306.94439   -1351.2125     418.5161    451.61228     185.0259    37401.237 
   59700    308.71365   -1309.7936    431.83128    514.32566    253.45919    37401.237 
   59800    296.92328   -1370.3082    444.02918    412.83477   -123.42316    37401.237 
   59900    300.74244   -1365.6214       427.16    417.87666   -374.74703    37401.237 
   60000    301.76859   -1350.3053    424.20482    434.86543   -183.07115    37401.237 
   60100    301.86772   -1375.1854    411.65597    397.88362    172.17326    37401.237 
   60200    307.10388   -1363.8761    432.73986    453.89173    521.01036    37401.237 
   60300    296.14497   -1383.3321    416.78231    369.05385   -131.35503    37401.237 
   60400    291.91251   -1373.5297    426.01809     369.0038    189.77333    37401.237 
   60500    283.07453   -1394.8345    424.15416    305.97607   -670.43444    37401.237 
   60600     301.9732   -1346.4975    425.04109    440.43239   -711.65557    37401.237 
   60700    290.19876   -1342.1323    452.31887    418.97303   -443.07269    37401.237 
   60800    305.49755   -1356.8086    405.28562    426.26052    -261.3919    37401.237 
   60900    305.85351   -1333.4141    410.08209     456.0568    24.003206    37401.237 
   61000     295.7084   -1351.1493    416.43676    398.92215    432.19889    37401.237 
   61100    296.80065   -1341.9138    444.28942    440.93633    87.801402    37401.237 
   61200    296.34051   -1346.0443     410.3355    400.77669    1079.2121    37401.237 
   61300    296.08212   -1317.4388     433.2851    451.16652    618.30011    37401.237 
   61400    300.33755   -1287.6068    422.65443    489.55962     127.4891    37401.237 
   61500    305.53239   -1330.4828    446.73092    494.18873     332.6298    37401.237 
   61600      298.471   -1346.4879    452.24734    451.85335     93.48899    37401.237 
   61700    296.14037   -1326.3813    411.11347    420.31501   -26.995067    37401.237 
   61800    302.60673   -1315.5588    427.91043    477.09757    33.504482    37401.237 
   61900    303.95128   -1343.3247    429.77373    457.25883    491.32742    37401.237 
   62000    296.99626   -1389.9737    441.97897     391.4482     276.2075    37401.237 
   62100    301.71029   -1360.5135    442.81383     443.0033    213.75631    37401.237 
   62200    307.78494   -1389.9546    438.58219    436.72706   -56.881878    37401.237 
   62300    299.22304   -1331.9666    450.04097       467.56    318.22388    37401.237 
   62400    302.57802   -1349.4485    431.29225    446.46025    197.85886    37401.237 
   62500    301.55723   -1372.5726    456.79864    444.23879    148.41497    37401.237 
   62600    301.50766   -1342.0034    439.74343    457.52925   -308.29424    37401.237 
   62700     298.8123    -1335.624    446.98763     458.9968   -132.95808    37401.237 
   62800    319.27964   -1342.3058    455.70309     553.3375   -168.81771    37401.237 
   62900    304.30145   -1299.4141    434.76938    507.74438    492.44196    37401.237 
   63000    293.71362   -1333.3757    437.36369    428.62628   -108.06941    37401.237 
   63100    291.90461   -1338.0321    469.46042    447.90802    539.56283    37401.237 
   63200    307.25337    -1364.909    427.75974    448.55291    188.28492    37401.237 
   63300    294.94589   -1339.0916    415.02643    406.13064    219.41488    37401.237 
   63400    296.87528   -1358.8755     454.7948    434.81661    299.58552    37401.237 
   63500    296.41886   -1340.4884    455.84323    452.19373    1100.9719    37401.237 
   63600    313.45232   -1380.2598    434.15487    467.55428    794.35517    37401.237 
   63700     303.1822   -1378.1098    450.19805     439.4296    690.60726    37401.237 
   63800    298.38983   -1335.1152    442.95488    453.56758    718.80696    37401.237 
   63900    295.30739   -1377.8619    428.58448     382.5488    222.24726    37401.237 
   64000    294.37471   -1380.7898    433.54471    380.37473    297.99059    37401.237 
   64100    303.34326   -1364.8059       437.26    440.52175     530.6261    37401.237 
   64200    301.72054   -1339.5707    437.13408    458.31261    -295.3402    37401.237 
   64300    307.85943    -1284.763    452.34362    556.01602   -878.54563    37401.237 
   64400    297.93863   -1349.7715    443.98745    437.90897   -647.81147    37401.237 
   64500    293.55633    -1330.142    452.18242    445.96938   -743.56286    37401.237 
   64600    303.86746   -1288.1173    462.99215    545.30666   -155.27715    37401.237 
   64700    303.50964   -1323.2168    438.47476    484.07603   -367.13605    37401.237 
   64800    305.56306    -1350.571    442.15335    469.66121   -284.79468    37401.237 
   64900    289.17057   -1385.4351    422.09945    340.81372    170.00414    37401.237 
   65000    305.47057   -1382.3722    414.26518    409.55477    125.66055    37401.237 
   65100     297.9348   -1356.8305    438.19583    425.04107    240.94462    37401.237 
   65200    297.68692   -1335.1946    452.81779    460.18099     400.3141    37401.237 
   65300    296.94701   -1348.4891    447.30417    438.03588     569.3718    37401.237 
   65400    293.49205   -1296.9028    439.07448    465.81076     806.6779    37401.237 
   65500    298.91036   -1311.4549    437.24454    473.86508    416.73231    37401.237 
   65600     300.8577   -1349.9448    443.96277    450.87587    28.405593    37401.237 
   65700    293.65478   -1365.4419    455.68485    414.61594    92.548699    37401.237 
   65800    302.48591   -1341.6177    449.73982    472.32315   -295.04042    37401.237 
   65900    293.46332   -1335.3963     451.4208    439.53398   -426.77975    37401.237 
   66000    308.06945    -1301.297    444.73731      532.823    286.68072    37401.237 
   66100    298.03519   -1324.2478    448.66902    468.54972   -288.09567    37401.237 
   66200    293.44261   -1330.1311    457.60703    450.89199    15.938916    37401.237 
   66300    310.64051   -1338.4926    445.94798    508.43336   -146.80193    37401.237 
   66400    292.69748   -1309.7509    424.38858    434.69329    200.20611    37401.237 
   66500    296.19939   -1364.3047    445.59229    417.13659    52.547906    37401.237 
   66600     304.7712   -1366.1401    452.50677    460.87426    225.13296    37401.237 
   66700    315.53328   -1321.2901    452.34356     554.0977    365.15365    37401.237 
   66800    288.58917   -1355.4495    472.32197    418.39968   -213.64304    37401.237 
   66900    305.13099   -1327.6709    444.85499    493.31439    186.49342    37401.237 
   67000    302.85827   -1325.9955    447.38366    487.26852    645.22899    37401.237 
   67100    297.82049   -1308.5737    479.61613     514.2026   0.53455367    37401.237 
   67200     295.2085   -1228.7654    441.86977    544.48458    83.909236    37401.237 
   67300    304.38584   -1285.3545    434.67837    522.09353   -376.15556    37401.237 
   67400    300.91718   -1333.9629     460.6802    483.84339   -71.038697    37401.237 
   67500    294.81938   -1325.7681    450.91627    454.77339    250.12188    37401.237 
   67600    294.15576   -1298.7509    475.86896    503.75039   -110.75216    37401.237 
   67700    298.33697   -1336.1135    466.25064    475.62657   -202.39898    37401.237 
   67800    292.78744   -1318.6903    435.46096    437.23192   -764.39463    37401.237 
   67900    298.24183   -1312.2573     478.6601     511.4632   -110.61614    37401.237 
   68000    298.63933   -1289.5094    463.34642    520.69016    442.05723    37401.237 
   68100    300.76872   -1311.6431    431.74198     476.5554    542.96694    37401.237 
   68200    296.04785   -1345.8331    463.83913    453.17167    449.85927    37401.237 
   68300      299.167   -1354.1486    458.23132    453.31563    182.63418    37401.237 
   68400    286.80631   -1336.3319    444.54753    401.70219     323.8473    37401.237 
   68500    311.61718   -1332.7272    455.94443    528.59999    237.08893    37401.237 
   68600    304.37233   -1339.1339    443.18527    476.76016    179.43659    37401.237 
   68700    305.42645   -1325.6989    463.39231    515.15619    -187.2068    37401.237 
   68800    295.15558   -1292.4631    451.54221    490.22062   -637.05015    37401.237 
   68900    295.94625   -1322.8129    460.41856    472.31306    -380.2429    37401.237 
   69000    297.45374   -1357.4339    446.90473    430.97694    122.00844    37401.237 
   69100    299.95891   -1342.4235    470.84614    481.22704    210.64524    37401.237 
   69200    304.26466   -1380.7914     468.5683    460.00001   -30.030166    37401.237 
   69300    296.46183   -1376.6718    430.83557    391.19643    293.01592    37401.237 
   69400     312.3506   -1375.4518    444.95895    478.19763   -90.528358    37401.237 
   69500    307.62602   -1381.5451    469.45072    475.28837    593.62756    37401.237 
   69600    308.17584   -1365.7341    454.56764    478.69598    197.54553    37401.237 
   69700    295.38841   -1371.8233    434.73187    395.10015    -220.2193    37401.237 
   69800    294.63479   -1395.9795    449.40655    382.21982   -688.55832    37401.237 
   69900    301.90272   -1387.9794    453.31493    426.90639   -33.066192    37401.237 
   70000      297.217   -1384.0765    462.05692    418.41882    751.19631    37401.237 
   70100    299.68814   -1415.7315     435.1076    370.95935    271.29889    37401.237 
   70200    286.75101    -1372.873    456.79866    377.16288    106.11474    37401.237 
   70300    295.56155   -1424.0776     441.0494    349.94422     659.7668    37401.237 
   70400    293.81404   -1369.9629    449.92659    405.05491    292.26448    37401.237 
   70500    301.95631   -1383.6117    447.32207    425.52289   0.87196717    37401.237 
   70600    295.28316   -1400.5076    437.36915    368.57842    739.48112    37401.237 
   70700    300.07762   -1357.1011    465.27842    461.51705    315.97909    37401.237 
   70800    303.08457   -1352.1488     436.3632    451.11538    722.96565    37401.237 
   70900    302.95345   -1340.0895    458.16799    484.38813   -49.229063    37401.237 
   71000      298.951   -1340.5271    461.85828     469.5899   -131.88992    37401.237 
   71100    298.75001   -1364.8578    448.67282    431.16728   -9.6307962    37401.237 
   71200    299.06259   -1354.8842    432.79627    426.67406   -426.00781    37401.237 
   71300     301.0721    -1350.999    482.26632    489.09215   -280.22029    37401.237 
   71400     289.6461   -1353.4056    429.67535    382.56367   -144.71611    37401.237 
   71500     299.7477   -1348.6414    447.00068    450.21106   -250.51439    37401.237 
   71600    288.34995    -1377.598    457.74796    380.59825    201.03221    37401.237 
   71700    291.10338   -1325.0368    466.40586    454.23526   -132.64551    37401.237 
   71800    299.39444   -1360.6635    446.91097    436.50608    770.58002    37401.237 
   71900    296.86413   -1426.0407    457.90785     370.7142    333.14324    37401.237 
   72000    301.10958    -1407.064    453.91381    404.84367   -4.3981897    37401.237 
   72100    301.84831   -1400.8255     425.9015    386.40149   -59.588328    37401.237 
   72200    295.88981   -1355.1754     443.3925    422.66992   -139.40647    37401.237 
   72300    303.94616   -1414.1498    450.92401     407.5609   -242.43229    37401.237 
   72400    292.02441   -1401.5665    429.21489    344.66843    4.6593054    37401.237 
   72500    304.14608   -1388.7766    461.37639    444.28814   -61.424831    37401.237 
   72600    309.92236   -1414.9735    459.35272    442.11842    702.33936    37401.237 
   72700    296.82197   -1380.5585    477.03235    435.13076    149.12817    37401.237 
   72800    304.18305   -1415.0701    461.98537    418.77036    508.07031    37401.237 
   72900    300.35781   -1379.0194    443.23515     418.8191    567.43439    37401.237 
   73000     289.2449   -1376.3708    476.86221    404.97594    487.07877    37401.237 
   73100      300.544   -1403.2115    434.82556    387.05717    -345.7483    37401.237 
   73200    284.51114   -1375.6503    472.96369     380.4489   -46.025315    37401.237 
   73300    290.47524   -1367.0018    469.04195    412.07352    201.88729    37401.237 
   73400     304.0232   -1392.9288    448.98156    427.18695     44.94856    37401.237 
   73500    300.31623    -1374.098    435.29083    415.60875    125.98222    37401.237 
   73600    294.97971   -1383.6388    453.73332    400.44288    668.91784    37401.237 
   73700    303.35826   -1374.9163    453.82384    447.04291    116.50228    37401.237 
   73800    311.22835   -1318.8441    463.39008    548.17514    140.34521    37401.237 
   73900    302.72143   -1384.8426    474.34286    454.76353   -89.137787    37401.237 
   74000    305.57766   -1372.5201    459.77737    465.40199    147.94193    37401.237 
   74100     302.8767   -1371.0187    479.49884    474.44362    10.105755    37401.237 
   74200    293.06468   -1392.2991    449.24504    378.65754    175.84433    37401.237 
   74300    293.70215   -1398.0446    445.46977    372.01177    278.83263    37401.237 
   74400    296.63364   -1360.2593    459.76919     437.3174    440.11479    37401.237 
   74500    288.92527   -1346.3535    448.13745    404.82697    597.63638    37401.237 
   74600    298.52173   -1315.4785    469.33687    500.18108    480.69051    37401.237 
   74700    286.76296    -1357.775    459.22471    394.74085    779.22571    37401.237 
   74800     303.9409   -1347.3874    446.32833    469.70393    128.85547    37401.237 
   74900    305.61538   -1358.3487    459.35517    479.32137    237.98507    37401.237 
   75000     295.8231   -1359.8171     448.1246    422.45947   -26.892493    37401.237 
   75100    287.19249   -1322.6821    440.57477    413.12087    113.75149    37401.237 
   75200    292.47484   -1376.3844    454.70606    397.37315   -250.69072    37401.237 
   75300    289.86408   -1373.1039    462.70991    396.88306    137.51201    37401.237 
   75400     313.8053   -1330.9142     455.8918    540.22877   -210.85759    37401.237 
   75500    317.05311   -1369.4307    454.06484    514.53281   -25.847817    37401.237 
   75600    296.58089   -1386.6022     454.7702    405.73763    269.23365    37401.237 
   75700    306.78491   -1350.0908       455.11     488.6086    523.96861    37401.237 
   75800    296.86574   -1370.6559     470.9504    439.14881      367.071    37401.237 
   75900    290.06587   -1349.5002    465.70033     424.3872   -39.285466    37401.237 
   76000    302.64391   -1376.5964    473.76823    462.08544    465.39317    37401.237 
   76100     305.3745   -1379.9352    468.96162     466.2549    -160.9925    37401.237 
   76200    291.95271   -1392.8982    442.69372    366.49218    80.781871    37401.237 
   76300    295.38211   -1350.3073     437.8915    419.74734    443.62482    37401.237 
   76400    298.91467   -1376.6793    456.52493    427.94054    85.644926    37401.237 
   76500    291.53308   -1396.2807    471.25236    389.77586    421.44253    37401.237 
   76600    296.20416   -1402.0575    456.78929    390.60231    149.75289    37401.237 
   76700    296.08449   -1411.2869    444.40201      368.446   -96.372571    37401.237 
   76800    294.30858   -1400.6227    467.34097    394.03983   -162.73205    37401.237 
   76900    308.36132    -1380.427     482.8965    493.16847    -84.54108    37401.237 
   77000    304.74167    -1321.695    465.31932    517.99878    399.90038    37401.237 
   77100    307.10402   -1364.3235    428.05223    448.75731    44.562173    37401.237 
   77200    295.77065   -1341.7088    458.07053    450.27721    175.66095    37401.237 
   77300    306.71231    -1347.692    470.60117    506.17113    141.45837    37401.237 
   77400    305.89222   -1357.3272    458.51604    480.75223    546.11144    37401.237 
   77500    300.09447   -1354.2892    468.30955     467.4361    681.85595    37401.237 
   77600    297.96001   -1322.5815    455.50913      476.717    306.50602    37401.237 
   77700    286.15472   -1389.5876    449.92161      350.882    236.78664    37401.237 
   77800    308.85748   -1386.8782    466.03591    472.09431   -44.147805    37401.237 
   77900    308.62735   -1430.0325    446.28834    408.15456    557.44341    37401.237 
   78000    292.77706   -1416.6146    461.60497    365.40486    589.06501    37401.237 
   78100    299.00829   -1392.6063    454.46493     410.3757    706.13988    37401.237 
   78200    288.59522   -1476.3162    452.55996    277.79831    572.12745    37401.237 
   78300    304.68739   -1439.6927    471.19482    405.63177    419.21905    37401.237 
   78400    313.75572    -1408.941    476.54265    482.62919   0.79419201    37401.237 
   78500    297.95849    -1421.551    445.87954    368.11106    321.41033    37401.237 
   78600    302.50697   -1431.6777    448.72613    381.34449    77.634478    37401.237 
   78700    294.71473   -1402.4823      443.674    370.34494   -108.25102    37401.237 
   78800    295.78841   -1446.6687    452.14679    339.47367   -408.33204    37401.237 
   78900    294.38067   -1390.3021    443.91287    381.25746    281.47886    37401.237 
   79000    300.28539    -1452.515    440.28849    342.05021    71.197313    37401.237 
   79100    290.80492   -1404.3327    470.35517     377.5426   -136.36386    37401.237 
   79200    299.64777   -1393.0262    473.57769    431.95262    394.31739    37401.237 
   79300    292.85958   -1418.2219    463.72339    366.28807    185.53643    37401.237 
   79400    301.72476   -1423.0451     458.5002    396.22337   -104.95713    37401.237 
   79500    304.03534   -1411.6477    453.52624    413.06749    213.75226    37401.237 
   79600    293.69335   -1447.3975    471.66995    348.81936   -399.36914    37401.237 
   79700    303.32838   -1432.1989    461.72031    397.52192    161.55118    37401.237 
   79800     294.3871   -1475.3663    436.46085    288.77018   -146.88729    37401.237 
   79900    299.25228   -1443.3321      456.396    362.68136    281.01053    37401.237 
   80000    312.85876   -1419.4442    458.52801    450.06605    83.660158    37401.237 
   80100    300.43987   -1403.6177    454.00488    405.36066    -445.6693    37401.237 
   80200    302.56995   -1402.6951    463.72075    425.60575   -73.578686    37401.237 
   80300     287.4916   -1388.4184    476.75065    384.90947    186.20723    37401.237 
   80400    296.97519   -1439.0186    445.19846    345.52772   -299.30589    37401.237 
   80500    297.70202   -1406.7061    426.56599    362.48577   -71.353356    37401.237 
   80600    294.17262    -1443.523    450.26603    333.45141   -761.54536    37401.237 
   80700    302.51935   -1444.7398    443.30186    362.91395   -620.74754    37401.237 
   80800    308.06139   -1449.3521    468.55998    408.55416   -1023.9596    37401.237 
   80900    297.51904   -1456.1693    473.78538    359.41673    9.4252626    37401.237 
   81000    291.33176    -1448.287    475.14655    340.75578   -191.48189    37401.237 
   81100    299.90596   -1435.8347    487.75211    404.48298   -493.20318    37401.237 
   81200    315.32876   -1418.9456    457.72098     460.8972     474.8285    37401.237 
   81300    295.81583   -1433.7922     449.3881    349.71509    96.048198    37401.237 
   81400    302.34246   -1459.8171    468.18306    371.92009   -57.427755    37401.237 
   81500    298.92091   -1442.0979    458.00948     364.0346   -372.73699    37401.237 
   81600    304.31307   -1447.6422    446.87627    371.67554    60.288661    37401.237 
   81700    312.78968   -1440.3392    448.08063    418.41217     463.2133    37401.237 
   81800     303.3593   -1422.0874    440.68686    386.73951     12.15153    37401.237 
   81900    299.63522   -1397.1614    473.88949    428.07264    7.5439179    37401.237 
   82000    300.61103   -1444.1153    492.39892    404.02899    262.97111    37401.237 
   82100    294.85508   -1437.2017    457.67007    350.25462     385.4762    37401.237 
   82200    296.63125   -1419.3523    488.46658    406.91099    69.010682    37401.237 
   82300    297.59866   -1406.5608    448.84239    384.44127    526.31401    37401.237 
   82400    300.70729   -1432.9887    436.24867    359.43947    -230.0719    37401.237 
   82500    303.03239   -1412.6099    444.70124      398.757    93.789858    37401.237 
   82600    311.69528   -1421.1011    439.86754    424.50149   -36.167334    37401.237 
   82700    301.86039   -1452.3294    469.65155    378.70211   -318.30652    37401.237 
   82800    297.22834   -1424.7624    474.52861    390.25581   -77.640578    37401.237 
   82900    309.14275   -1406.3422    473.39272    461.27375    246.95482    37401.237 
   83000    304.09058   -1403.3314     467.5753    435.68198    171.57009    37401.237 
   83100    307.58321   -1445.0633    457.10809    399.23448   -420.29304    37401.237 
   83200    300.16998   -1451.2338    463.48079    366.00328   -602.91279    37401.237 
   83300    300.51891   -1462.5502    469.89975    362.67954   -208.44901    37401.237 
   83400    300.03469   -1435.7118    477.85957    395.29392   -368.03987    37401.237 
   83500    306.88269   -1446.9664    481.51084    418.57481   -16.557096    37401.237 
   83600    297.28618   -1420.7017    462.73354    382.78234    -659.2901    37401.237 
   83700    307.56332   -1397.0159    453.10466    443.18869   -760.21782    37401.237 
   83800    298.46291   -1382.7328    462.42649    425.75113   -714.32217    37401.237 
   83900    299.95625   -1376.4799    464.66385    440.97634   -861.72525    37401.237 
   84000    300.18982   -1372.6586    464.63076    445.81797   -951.07218    37401.237 
   84100    306.96484   -1354.4556    468.12244    498.06771   -95.713605    37401.237 
   84200    301.23799    -1398.004    485.22748    445.79643   -172.21647    37401.237 
   84300    293.77075   -1364.2394     480.9998    441.65643   -381.48922    37401.237 
   84400    304.79607   -1387.6753    455.73396     442.6785   -269.18283    37401.237 
   84500    299.12291   -1422.9903    459.53487    385.57859   -443.39209    37401.237 
   84600    302.20311   -1438.7832    448.74099    372.88345   -278.27607    37401.237 
   84700    295.92581   -1442.5634    443.23989    335.29175    296.54041    37401.237 
   84800    295.10159   -1415.7809    458.42382    373.54091      63.2761    37401.237 
   84900    319.46458   -1405.2606    473.08497    508.59863    199.12732    37401.237 
   85000    306.17481   -1458.9682    451.37826    373.24789    126.86758    37401.237 
   85100    304.78982   -1452.9784    462.33923     383.9524   -237.88072    37401.237 
   85200    307.86172   -1424.9026    441.29815    404.84132   -34.777819    37401.237 
   85300     302.7859   -1389.9519     488.1481    463.75017    60.339897    37401.237 
   85400    301.97705   -1354.1712     491.1606    498.89555   -417.49556    37401.237 
   85500    313.13511   -1403.5523    472.45923    481.13547    395.66902    37401.237 
   85600     290.8053   -1402.3475    503.54374    412.71816    582.01477    37401.237 
   85700    296.75448   -1432.4572     459.8604    365.75572    482.09351    37401.237 
   85800    303.19958   -1433.0875    436.64604    370.97825    289.51756    37401.237 
   85900    312.47296   -1452.0865    436.90842    394.06416   -98.402036    37401.237 
   86000    300.83488   -1401.8181    447.50651    402.44337   -245.86644    37401.237 
   86100    318.03835   -1404.2352    465.57265    495.67949    585.44538    37401.237 
   86200     308.5834   -1420.4735      472.257    443.48404     63.16042    37401.237 
   86300    299.07093     -1441.86    468.15717    375.09677   -519.29315    37401.237 
   86400    290.04884   -1368.1961    468.58751    408.50172   -473.46809    37401.237 
   86500    297.91109   -1402.6059    468.85828     409.8212   -302.94466    37401.237 
   86600    295.89581    -1393.351    462.63449    403.76346   -530.79481    37401.237 
   86700    302.66783   -1397.8756    449.85364    416.99953    532.05715    37401.237 
   86800    294.79159    -1407.434    453.75232    375.81826   -711.86409    37401.237 
   86900    301.11623   -1474.3372    499.40475    383.09143    627.93408    37401.237 
   87000     285.2693    -1480.338    472.63985    278.85662    855.83014    37401.237 
[...]
  984300    291.67156   -1421.3832    495.60365    389.64911    5.4509902    37401.237 
  984400    296.54219   -1423.8988    478.85993    392.35618   -9.4212219    37401.237 
  984500    294.63139   -1455.8148    521.51772    394.48031     16.70416    37401.237 
  984600     297.8088   -1454.7114    484.66722    373.06328   -453.63668    37401.237 
  984700    297.04425   -1449.3291    487.22542    377.55567   -680.82268    37401.237 
  984800    303.28682   -1442.3842    506.48513    431.91408   -417.46112    37401.237 
  984900    293.09014     -1432.34    474.97164    364.45808   -105.04683    37401.237 
  985000    306.15344   -1410.7239    488.55527    458.57289   -197.83587    37401.237 
  985100    310.82144   -1448.3413    482.21209    435.66479   -76.218674    37401.237 
  985200    288.03599   -1402.1113    489.64891    386.57002   -807.81349    37401.237 
  985300    292.37038   -1410.1206    488.82246    397.28226   -575.63688    37401.237 
  985400    290.95274   -1445.7892     484.1154      350.513   -350.94718    37401.237 
  985500    296.42828   -1406.6532    484.34621    414.57442   -417.27102    37401.237 
  985600    293.30914   -1428.9086    502.63589    396.54146   -942.72877    37401.237 
  985700    299.47055   -1440.7807    494.45115    404.27237    225.84908    37401.237 
  985800    298.86384   -1420.0023    518.52801    446.39137    30.843614    37401.237 
  985900    288.53329   -1405.9581    509.30515    404.62225    119.45771    37401.237 
  986000    303.11915   -1402.1862    496.47138    461.34213   -335.91403    37401.237 
  986100    304.63776   -1450.1299    491.36025     415.1362   -152.27248    37401.237 
  986200    307.82378   -1422.6581    501.16251    466.77911    434.26401    37401.237 
  986300    300.70785   -1424.5096     500.3049    431.97736    460.22974    37401.237 
  986400    291.14597   -1433.5519    495.27555    374.78199   -320.09765    37401.237 
  986500    298.59361   -1438.1837    466.88689    375.35009    226.91151    37401.237 
  986600    303.41387   -1421.2605    479.98323    427.10887   -261.49337    37401.237 
  986700    305.78624   -1446.3641    493.20419    425.92548    262.09187    37401.237 
  986800    306.36574   -1462.7798    465.49123    384.41045    606.42639    37401.237 
  986900    289.73516   -1470.8531    490.60161    326.44417   -56.804425    37401.237 
  987000    287.54023   -1473.6257    508.30206    331.47288    153.45346    37401.237 
  987100    304.68478   -1468.7018    478.38681    383.80286     276.6042    37401.237 
  987200    298.79509   -1431.1258    468.52115    384.95092    2.2874495    37401.237 
  987300    302.91815   -1424.9452    495.16778    436.37304   -530.15032    37401.237 
  987400     284.3154   -1409.6626      485.089    357.67911   -629.77743    37401.237 
  987500    295.76386   -1413.8935    493.30131    413.29267   -516.16953    37401.237 
  987600    299.97633    -1393.728    503.57968    462.73459   -535.76689    37401.237 
  987700    294.52823   -1401.2531    470.60184    397.66087   -323.20958    37401.237 
  987800    305.62578   -1436.3945    492.38119    434.34844    347.32263    37401.237 
  987900    296.87221   -1415.0888    472.13272    395.92735   -594.64439    37401.237 
  988000    304.87923   -1434.3375    466.68337    407.34071   -526.03275    37401.237 
  988100    296.69352   -1432.6302    459.52102    364.96836   -345.10381    37401.237 
  988200    295.96006   -1422.7128    456.96321    369.02003   -351.34804    37401.237 
  988300    295.31759   -1443.2922     467.2703    355.85032    -277.7439    37401.237 
  988400    300.80905   -1453.5455    486.86815    389.96112   -294.84778    37401.237 
  988500    302.16474   -1446.6713    511.60791    427.68917   -315.47667    37401.237 
  988600    297.16791   -1446.3384    465.74538    359.62402   -636.06561    37401.237 
  988700    303.61562    -1441.709     487.9154    415.50236   -418.64463    37401.237 
  988800    288.31343   -1496.7154    451.70872      255.277    12.562484    37401.237 
  988900    306.24623   -1471.6865    484.25866    393.73217    320.33163    37401.237 
  989000     303.4336   -1472.1919    501.37237    397.65557    502.00916    37401.237 
  989100    301.16159   -1422.2911    477.06561    413.00288   -37.590826    37401.237 
  989200    304.31767   -1443.1824    484.63873    413.91853   -93.320661    37401.237 
  989300    289.69494   -1409.4451    497.36185    394.43091    347.14801    37401.237 
  989400    301.46751    -1465.873    484.60101    378.33612   -28.441725    37401.237 
  989500    305.16872   -1398.2961    484.75758    462.76189     345.5427    37401.237 
  989600    292.98694   -1399.6252    480.18835    401.92416    231.57866    37401.237 
  989700    294.95057   -1424.6369    490.40872    395.98876    132.28466    37401.237 
  989800    303.33768   -1439.5034    504.36623     432.9053    132.36431    37401.237 
  989900    298.93137   -1427.1703    488.93123    409.93116   -558.69634    37401.237 
  990000    303.97186   -1393.2885    487.44076    465.05487   -235.13691    37401.237 
  990100    299.70315   -1369.4344    504.27009    486.48662    -537.5415    37401.237 
  990200     300.6632   -1399.2742    505.66771    462.37426   -857.95019    37401.237 
  990300    301.08981   -1397.5355    486.96468    447.33386   -561.74486    37401.237 
  990400    297.91644   -1462.9935    487.19481    367.79416   -1084.9097    37401.237 
  990500    290.40544   -1447.3591    490.97273    353.33213   -323.61692    37401.237 
  990600    299.90498   -1420.0845    487.46748    419.94416   -54.624959    37401.237 
  990700     311.0068   -1486.5835    455.65811    371.70461     130.1557    37401.237 
  990800    306.90675   -1477.9911    464.38454    370.53226   -78.684785    37401.237 
  990900    303.41293   -1462.7839    489.88541     395.4834   -415.58565    37401.237 
  991000    306.70935   -1476.1349    475.03814    382.15187   -820.86757    37401.237 
  991100    301.96835   -1480.0638    490.80303    372.60608   -964.82405    37401.237 
  991200    298.19835   -1484.3724    486.64522    347.13714   -855.33785    37401.237 
  991300    297.77435   -1474.3942    485.95141    354.50927   -493.31718    37401.237 
  991400    293.29667   -1455.3842    472.61155    339.98527   -411.15143    37401.237 
  991500    303.35595   -1435.3737    499.32459    432.07576    103.56308    37401.237 
  991600    297.74853   -1470.0548    477.92375    350.70455    335.79859    37401.237 
  991700    298.71625   -1447.1294    501.66903    401.73963    745.20483    37401.237 
  991800     304.1752   -1482.8568    487.48378    376.44665    804.27042    37401.237 
  991900    311.26816   -1449.5981    450.99185    405.20247    816.18934    37401.237 
  992000    301.33839   -1445.8797    473.25111    386.39717    177.30079    37401.237 
  992100    304.66479   -1424.0763    503.95865    453.91001    -445.6373    37401.237 
  992200    306.08355   -1454.9715    492.98007    418.43484    189.61875    37401.237 
  992300     295.4044   -1473.1701    459.08673     318.1803    724.93249    37401.237 
  992400    301.21741   -1470.5733    523.40036    411.30725    421.37004    37401.237 
  992500    297.23434   -1450.1358    519.69869    410.07951    673.33659    37401.237 
  992600    311.31488   -1441.7472    490.03576    452.30796    622.84947    37401.237 
  992700    299.78152    -1473.232    470.58176    349.35407    -5.684081    37401.237 
  992800    300.58658    -1446.001    448.17611    357.81022    470.33239    37401.237 
  992900    293.98329   -1433.7018     477.3019     369.4546   -169.16671    37401.237 
  993000    301.28539   -1445.2158    495.25117    408.82209    62.926719    37401.237 
  993100    300.06608   -1440.5412    476.28247    389.02891   -27.890093    37401.237 
  993200    297.01405   -1485.2463    480.00068    334.27752    -123.9825    37401.237 
  993300    304.97006    -1495.894    448.39949    327.90991    69.502241    37401.237 
  993400    303.47614   -1495.9137    474.80728    347.56055   -181.08557    37401.237 
  993500    289.66824   -1498.4806     472.1164    280.02962    49.433483    37401.237 
  993600    300.70678   -1527.4967    499.56861    328.24917       155.39    37401.237 
  993700     289.7066    -1479.653    458.05769    284.97153   -172.80157    37401.237 
  993800    292.11947   -1476.9441    473.84885    314.35349   -535.36319    37401.237 
  993900    295.67165   -1481.3447    488.11315    340.23745    -759.9361    37401.237 
  994000    307.44976   -1470.8445    471.09919    386.84257   -344.28709    37401.237 
  994100     310.7421   -1491.9779    464.82128    374.27958   -452.06302    37401.237 
  994200    291.41391    -1482.776    481.00817    312.49881   -259.65056    37401.237 
  994300    289.24022   -1473.5344    481.95989    312.88893   -793.05406    37401.237 
  994400    300.31036   -1432.3937    473.79306    395.78876   -714.39429    37401.237 
  994500    308.23746   -1477.0649    464.91802    377.99343    82.078501    37401.237 
  994600    304.91004   -1450.5238    516.09209    440.70201     520.7113    37401.237 
  994700    293.72584   -1440.6736    484.60165    368.62145    264.64831    37401.237 
  994800    290.14817   -1469.0153    492.38193    331.92485    411.83252    37401.237 
  994900    290.72056     -1454.29    505.58008    362.42982    480.18182    37401.237 
  995000    298.96628   -1473.8227    449.42393    323.92888    273.33109    37401.237 
  995100    298.68778   -1476.7834    515.07703    385.36522   -3.6113268    37401.237 
  995200    301.22142   -1463.2726    468.49425    363.71992    50.771797    37401.237 
  995300    296.12524   -1449.8943     484.8029    370.42321    719.77839    37401.237 
  995400    299.01717    -1504.758    475.66885    319.46802    276.81971    37401.237 
  995500    294.82568   -1498.2721    474.95095    306.33255    508.04086    37401.237 
  995600    303.07485   -1486.9876    467.72603    347.59554    245.73746    37401.237 
  995700    295.99447    -1422.755    489.40861    401.57848    549.51359    37401.237 
  995800    303.93416   -1428.6296    494.31757    436.42061   -298.91808    37401.237 
  995900    300.76113   -1456.5857    474.32794    374.16462   -148.08931    37401.237 
  996000     294.2773   -1447.9341    485.85057    365.09695    430.67327    37401.237 
  996100    307.41549   -1465.8176    475.13662    395.75225    834.18193    37401.237 
  996200    293.75317   -1512.9505    470.01846     281.8847    336.29928    37401.237 
  996300    305.29529   -1489.8883    466.78462    353.76764    1493.4168    37401.237 
  996400    288.22831   -1486.1499    489.44097    303.19088    573.12704    37401.237 
  996500    298.93539   -1447.5056    468.79383    369.47659    287.40194    37401.237 
  996600    307.18371    -1494.298    481.82261    372.91252   -138.67106    37401.237 
  996700    299.79879    -1468.055    465.51381    349.54099   -386.87344    37401.237 
  996800    311.34794   -1451.5587    470.64052    423.25036   -323.05505    37401.237 
  996900    298.38679   -1444.5613    472.30775    373.46063   -237.41191    37401.237 
  997000    292.62308   -1458.1723    474.31384    335.86154   -534.45079    37401.237 
  997100    302.78553   -1447.8251    496.10841    413.83566   -377.21799    37401.237 
  997200    284.49076   -1465.6248    530.27356    347.69233   -148.21559    37401.237 
  997300    309.09677   -1428.1701    483.43428    449.27999     637.2454    37401.237 
  997400    298.99745   -1444.6053     489.0145    392.87737   -190.43819    37401.237 
  997500    302.38537   -1418.9886    482.22005    426.97903   -127.00844    37401.237 
  997600    298.64806   -1427.3668     466.9741    386.49975    440.16749    37401.237 
  997700    303.92132   -1476.7825    487.66281    381.55497    429.46359    37401.237 
  997800    297.31824   -1472.2463    476.63997    345.28865    430.76229    37401.237 
  997900    294.09751   -1493.4376    495.25745    328.18952   -46.630327    37401.237 
  998000    292.99106   -1483.3356    470.06297    308.10703    25.724917    37401.237 
  998100     294.9946   -1451.0465    474.98959    354.35865   -368.69349    37401.237 
  998200    289.29227    -1455.997    492.76318    341.46435   -615.41095    37401.237 
  998300    303.93292   -1494.8818     497.2269    373.07207   -279.91824    37401.237 
  998400    306.82462    -1494.441    481.21426    370.54174    -309.4705    37401.237 
  998500    297.83652   -1481.0174    472.76167     334.9767   -520.42443    37401.237 
  998600    296.42067   -1482.6846    505.56059    359.72305   -12.528443    37401.237 
  998700    292.19478   -1483.9822    507.86079    341.66701     229.2206    37401.237 
  998800    295.86895   -1453.5153     463.9842    344.82766    4.0688942    37401.237 
  998900    293.97486   -1470.9135    511.64504    366.54809    222.29145    37401.237 
  999000    301.72141   -1433.0925    492.86185    420.52252   -381.32632    37401.237 
  999100    294.95009   -1437.4136    478.00043    370.80164   -179.29039    37401.237 
  999200     297.3912   -1446.1489    515.53027    410.60549   -679.75431    37401.237 
  999300    298.85746   -1434.2755    511.49928    425.06066   -41.320584    37401.237 
  999400     296.4887   -1410.2864    460.71764    387.58508    164.21021    37401.237 
  999500     306.9866   -1441.0728    486.41195    429.83816   -13.358337    37401.237 
  999600    300.66417   -1440.1407    477.30284    393.14721    79.507439    37401.237 
  999700    297.50774   -1419.7987    497.86511    419.81609     90.92835    37401.237 
  999800    286.65867   -1421.4928    486.10303      357.431   -917.33829    37401.237 
  999900    307.02442   -1414.0848    469.98619    440.57099    -27.75937    37401.237 
 1000000    305.90404   -1401.5013    481.99366    460.10909   -357.72544    37401.237 
 1000100    302.62469   -1443.3955    507.82371    429.25511   -802.18437    37401.237 
 1000200    304.44593   -1442.5024    463.60537    394.14367   -536.94047    37401.237 
 1000300    309.61473    -1473.461    476.70223      399.593   -423.65577    37401.237 
 1000400    301.88344   -1400.5672    505.84766    466.76443   -781.70249    37401.237 
 1000500    304.24217   -1399.2479    493.65299    466.52686   -1239.8012    37401.237 
 1000600    291.93627   -1443.1278    471.48225    344.97704   -1109.3498    37401.237 
 1000700    303.92169   -1440.5851    513.26326    443.35457   -1116.4911    37401.237 
 1000800    295.45906   -1443.3139    445.30555    334.50189   -546.25071    37401.237 
 1000900    301.68778   -1465.3712    477.30602    372.53633   -241.65803    37401.237 
 1001000    303.54775   -1470.3024    502.13376    400.82124   -1139.0237    37401.237 
 1001100    298.43219   -1471.4542    475.81739    350.28204   -607.88147    37401.237 
 1001200    294.70639    -1460.462    495.61989    364.27357   -477.36925    37401.237 
 1001300    302.73132   -1461.2304    478.44012    382.51751    -476.0165    37401.237 
 1001400    311.93351   -1513.5315    458.87668    352.15454   -23.159723    37401.237 
 1001500    303.95314   -1473.1216    480.33097    378.02761    13.615141    37401.237 
 1001600    299.22282   -1477.5931      491.136    363.02754   -67.272331    37401.237 
 1001700    301.55637   -1463.4267    502.39037    398.97259    467.42548    37401.237 
 1001800    302.95405   -1491.2444    469.76227    344.83021    75.975507    37401.237 
 1001900     301.1358   -1478.4583    471.54629    351.20007    294.18162    37401.237 
 1002000    299.52622   -1520.7094    463.75383    293.89742    179.58559    37401.237 
 1002100    309.31363   -1523.3237    481.25043    352.92057    33.837124    37401.237 
 1002200    309.53925   -1503.2008    494.59686    387.40743    693.15884    37401.237 
 1002300    292.69767   -1524.9652    488.39256    283.48378    199.76869    37401.237 
 1002400    292.60479   -1498.7317    477.85372    298.75957   -142.51392    37401.237 
 1002500    295.48332   -1498.0121    455.68994    290.29746    -72.91819    37401.237 
 1002600    302.15046   -1516.5057     498.3829    344.56535     289.8124    37401.237 
 1002700    300.94039   -1487.8602    485.97719    355.34782   -150.51305    37401.237 
 1002800    295.37609    -1473.237    485.89183    344.79084   -102.87762    37401.237 
 1002900    301.05883   -1501.5087    469.87549    326.13176    152.17577    37401.237 
 1003000    304.63036   -1482.8349      461.097     352.1345    316.31424    37401.237 
 1003100    299.87972   -1453.1172     480.4574    379.78739    525.48524    37401.237 
 1003200    299.66725   -1482.2026    482.50174    351.78816    368.72963    37401.237 
 1003300    307.25103   -1470.8065    498.34102    413.22616    841.99438    37401.237 
 1003400    290.37244   -1454.1545    475.61186    331.02711    292.48414    37401.237 
 1003500    301.31987   -1443.8864    493.65547    408.71135    290.27645    37401.237 
 1003600    303.34884   -1445.6607    473.13979    395.57192    224.07327    37401.237 
 1003700    295.50493   -1436.7686    474.00412    369.95259   -89.084941    37401.237 
 1003800    289.74407   -1440.8175     491.5571    357.47542    24.723516    37401.237 
 1003900    296.27951   -1447.8471    487.50053    375.86382    297.51923    37401.237 
 1004000    304.32018   -1461.9314    478.34115    388.88335   -109.71533    37401.237 
 1004100    291.97508   -1476.7037    475.27018    315.36409   -228.28217    37401.237 
 1004200    307.34252   -1438.7092    479.73862    427.13365   -102.31595    37401.237 
 1004300    304.75441   -1467.8929    500.51168    407.05062    612.88397    37401.237 
 1004400    300.81008   -1484.3319    505.22764    377.53881    627.27173    37401.237 
 1004500    290.21949   -1493.8379    492.89659    307.93861    106.64883    37401.237 
 1004600    304.62957   -1451.4758    469.30273    391.69577     486.0949    37401.237 
 1004700    296.54641   -1430.5484    494.93474    401.80047    3.5112611    37401.237 
 1004800     303.8217   -1475.9152    472.14121    366.45141   -11.345238    37401.237 
 1004900    299.87262   -1477.7361    486.04984    360.72896    139.76535    37401.237 
 1004984    308.26595   -1447.2374    492.39249    435.42394   -155.08077    37401.237 
Loop time of 602.269 on 32 procs for 1000000 steps with 1514 atoms

Performance: 143.458 ns/day, 0.167 hours/ns, 1660.389 timesteps/s
100.0% CPU use with 32 MPI tasks x no OpenMP threads

MPI task timing breakdown:
Section |  min time  |  avg time  |  max time  |%varavg| %total
---------------------------------------------------------------
Pair    | 259.09     | 274.79     | 303.35     |  55.9 | 45.63
Bond    | 1.4672     | 1.5865     | 1.821      |   6.5 |  0.26
Neigh   | 39.081     | 39.158     | 39.232     |   0.9 |  6.50
Comm    | 246.39     | 274.79     | 290.53     |  56.0 | 45.63
Output  | 0.39452    | 0.41169    | 0.84069    |  12.0 |  0.07
Modify  | 8.4706     | 8.7363     | 8.9591     |   4.4 |  1.45
Other   |            | 2.791      |            |       |  0.46

Nlocal:        47.3125 ave          65 max          16 min
Histogram: 1 0 2 2 4 2 9 4 4 4
Nghost:        1979.75 ave        2089 max        1885 min
Histogram: 11 5 0 0 0 0 0 4 9 3
Neighs:        5237.75 ave        8019 max        1245 min
Histogram: 1 1 2 4 4 4 6 2 4 4

Total # of neighbors = 167608
Ave neighs/atom = 110.70542
Ave special neighs/atom = 2.0317041
Neighbor list builds = 49628
Dangerous builds = 0

# Output the system volume
variable v equal vol
print 'The system volume is $v'
The system volume is 37401.2367559733

# Outputs
variable A equal xhi-xlo
variable B equal yhi-ylo
variable C equal zhi-zlo
variable D equal xy
variable E equal xz
variable F equal yz
print 'Lattice vectors'
Lattice vectors
print '$A 0 0'
33.4422370608778 0 0
print '$D $B 0'
0 33.4422370608778 0
print '$E $F $C'
0 0 33.4422370608778
Total wall time: 0:10:06
