LAMMPS data file
 1503 atoms
 1002 bonds
 501 angles
 0 dihedrals
 0 impropers
 2 atom types
 1 bond types
 1 angle types
 0 dihedral types
 1 improper types
 0 15 xlo xhi
 0 15 ylo yhi
 0 15 zlo zhi
 0 0 0 xy xz yz

# Atom types
#
# 1 O_3
# 2 H__HB

# Bond Coeffs
#
# 1 O_3*H__HB

# Angle Coeffs
#
# 1 O_3

# Dihedral Coeffs
#

# Inversion Coeffs
#
# 1 1

 Masses

 1 16
 2 1.01

 Atoms # full

1 1 1 0 6.08707062900066 6.02776776300743 7.61568015441298
2 1 2 0 5.86756324141189 6.32139944100655 8.81207226173791
3 1 2 0 6.30657801658944 5.73413608500831 6.41928804708806
4 2 2 0 1.3142092460487 0.469505340270698 10.9656719898339
5 2 1 0 2.2742092460487 0.469505340270698 10.9656719898339
6 2 2 0 2.5142092460487 -0.460494659729302 10.9656719898339
7 3 2 0 12.4299941367656 1.73658951226622 7.7388794941362
8 3 1 0 13.3899941367656 1.73658951226622 7.7388794941362
9 3 2 0 13.6299941367656 0.806589512266219 7.7388794941362
10 4 2 0 6.26288472136483 2.9663680858817 13.7513242021669
11 4 1 0 7.22288472136483 2.9663680858817 13.7513242021669
12 4 2 0 7.46288472136483 2.0363680858817 13.7513242021669
13 5 2 0 0.000818575937300947 10.8779418728687 5.0018632854335
14 5 1 0 0.960818575937301 10.8779418728687 5.0018632854335
15 5 2 0 1.2008185759373 9.94794187286869 5.0018632854335
16 6 2 0 2.5265378602501 13.4838274777308 5.21119710523635
17 6 1 0 3.4865378602501 13.4838274777308 5.21119710523635
18 6 2 0 3.7265378602501 12.5538274777308 5.21119710523635
19 7 2 0 6.50877524443902 13.2516466853581 9.58633925300092
20 7 1 0 7.46877524443902 13.2516466853581 9.58633925300092
21 7 2 0 7.70877524443902 12.3216466853581 9.58633925300092
22 8 2 0 11.9048237374239 11.4191493151616 12.962864683941
23 8 1 0 12.8648237374239 11.4191493151616 12.962864683941
24 8 2 0 13.1048237374239 10.4891493151616 12.962864683941
25 9 2 0 6.45621627962217 7.09163108066656 14.4421721692197
26 9 1 0 7.41621627962217 7.09163108066656 14.4421721692197
27 9 2 0 7.65621627962217 6.16163108066656 14.4421721692197
28 10 2 0 6.28305292848498 10.5113697766233 3.32095046178438
29 10 1 0 7.24305292848498 10.5113697766233 3.32095046178438
30 10 2 0 7.48305292848498 9.58136977662332 3.32095046178438
31 11 2 0 8.71970372085459 4.124153871499 13.2636793493293
32 11 1 0 9.6797037208546 4.124153871499 13.2636793493293
33 11 2 0 9.9197037208546 3.194153871499 13.2636793493293
34 12 2 0 6.49217691781931 11.7713847597502 6.05382931069471
35 12 1 0 7.45217691781931 11.7713847597502 6.05382931069471
36 12 2 0 7.69217691781931 10.8413847597502 6.05382931069471
37 13 2 0 2.28989599898458 6.99128604069352 14.2662197502796
38 13 1 0 3.24989599898458 6.99128604069352 14.2662197502796
39 13 2 0 3.48989599898458 6.06128604069352 14.2662197502796
40 14 2 0 4.12107971889898 5.59620958211832 1.89993643085472
41 14 1 0 5.08107971889898 5.59620958211832 1.89993643085472
42 14 2 0 5.32107971889898 4.66620958211832 1.89993643085472
43 15 2 0 4.29339592156 0.718247372834012 8.88502960558981
44 15 1 0 5.25339592156 0.718247372834012 8.88502960558981
45 15 2 0 5.49339592156 -0.211752627165988 8.88502960558981
46 16 2 0 9.53588861200958 6.61821625120006 9.39856038778089
47 16 1 0 10.4958886120096 6.61821625120006 9.39856038778089
48 16 2 0 10.7358886120096 5.68821625120006 9.39856038778089
49 17 2 0 3.38130440373905 8.65087190800346 0.456814669305459
50 17 1 0 4.34130440373905 8.65087190800346 0.456814669305459
51 17 2 0 4.58130440373905 7.72087190800346 0.456814669305459
52 18 2 0 10.8742067443393 2.5720668518357 0.548214493319392
53 18 1 0 11.8342067443393 2.5720668518357 0.548214493319392
54 18 2 0 12.0742067443393 1.6420668518357 0.548214493319392
55 19 2 0 4.26622955521569 10.8185204169154 8.21427911985666
56 19 1 0 5.22622955521569 10.8185204169154 8.21427911985666
57 19 2 0 5.46622955521569 9.88852041691542 8.21427911985666
58 20 2 0 13.016800403567 2.72244530188851 12.3536763014272
59 20 1 0 13.976800403567 2.72244530188851 12.3536763014272
60 20 2 0 14.216800403567 1.79244530188851 12.3536763014272
61 21 2 0 11.8858371900581 7.17421464779414 13.6843387177214
62 21 1 0 12.8458371900581 7.17421464779414 13.6843387177214
63 21 2 0 13.0858371900581 6.24421464779414 13.6843387177214
64 22 2 0 10.8546825851966 12.8292207226064 11.2979242927395
65 22 1 0 11.8146825851966 12.8292207226064 11.2979242927395
66 22 2 0 12.0546825851966 11.8992207226064 11.2979242927395
67 23 2 0 8.32156858334318 7.80188026878983 3.0120986723341
68 23 1 0 9.28156858334318 7.80188026878983 3.0120986723341
69 23 2 0 9.52156858334318 6.87188026878983 3.0120986723341
70 24 2 0 8.88077689611353 4.20381990768015 10.2914220071398
71 24 1 0 9.84077689611353 4.20381990768015 10.2914220071398
72 24 2 0 10.0807768961135 3.27381990768015 10.2914220071398
73 25 2 0 6.60931848498993 6.09932597185485 6.22902785777114
74 25 1 0 7.56931848498993 6.09932597185485 6.22902785777114
75 25 2 0 7.80931848498993 5.16932597185485 6.22902785777114
76 26 2 0 2.04855574571528 9.03822725097649 10.0105087109841
77 26 1 0 3.00855574571528 9.03822725097649 10.0105087109841
78 26 2 0 3.24855574571528 8.10822725097649 10.0105087109841
79 27 2 0 7.73141480094753 4.75326513330452 9.45980533026159
80 27 1 0 8.69141480094753 4.75326513330452 9.45980533026159
81 27 2 0 8.93141480094753 3.82326513330452 9.45980533026159
82 28 2 0 -0.308146816240624 10.4359580207989 11.2539166747592
83 28 1 0 0.651853183759376 10.4359580207989 11.2539166747592
84 28 2 0 0.891853183759376 9.50595802079886 11.2539166747592
85 29 2 0 8.79113990158774 4.9368295601476 8.72246583807282
86 29 1 0 9.75113990158774 4.9368295601476 8.72246583807282
87 29 2 0 9.99113990158774 4.0068295601476 8.72246583807282
88 30 2 0 7.58277291708626 2.9468136331439 7.88698106305674
89 30 1 0 8.54277291708626 2.9468136331439 7.88698106305674
90 30 2 0 8.78277291708626 2.0168136331439 7.88698106305674
91 31 2 0 0.756411663461477 4.99340874766 10.813348054653
92 31 1 0 1.71641166346148 4.99340874766 10.813348054653
93 31 2 0 1.95641166346148 4.06340874766 10.813348054653
94 32 2 0 5.18226052561775 4.63688901200891 11.2860822386574
95 32 1 0 6.14226052561775 4.63688901200891 11.2860822386574
96 32 2 0 6.38226052561775 3.70688901200891 11.2860822386574
97 33 2 0 1.16250589650124 4.67663995380513 14.6835275797639
98 33 1 0 2.12250589650124 4.67663995380513 14.6835275797639
99 33 2 0 2.36250589650124 3.74663995380513 14.6835275797639
100 34 2 0 5.74013141493313 14.1288704324421 4.08830745960586
101 34 1 0 6.70013141493313 14.1288704324421 4.08830745960586
102 34 2 0 6.94013141493313 13.1988704324421 4.08830745960586
103 35 2 0 10.8769908214174 14.1782354451157 7.14863271801732
104 35 1 0 11.8369908214174 14.1782354451157 7.14863271801732
105 35 2 0 12.0769908214174 13.2482354451157 7.14863271801732
106 36 2 0 6.27600715655834 2.30665652122349 5.8107604784891
107 36 1 0 7.23600715655834 2.30665652122349 5.8107604784891
108 36 2 0 7.47600715655834 1.37665652122349 5.8107604784891
109 37 2 0 10.0345889471658 14.1114421088155 1.91985793062486
110 37 1 0 10.9945889471658 14.1114421088155 1.91985793062486
111 37 2 0 11.2345889471658 13.1814421088155 1.91985793062486
112 38 2 0 10.8631198962405 3.66829602787271 12.8039021347649
113 38 1 0 11.8231198962405 3.66829602787271 12.8039021347649
114 38 2 0 12.0631198962405 2.73829602787271 12.8039021347649
115 39 2 0 12.955008615246 10.3429714361578 5.41726981988177
116 39 1 0 13.915008615246 10.3429714361578 5.41726981988177
117 39 2 0 14.155008615246 9.41297143615782 5.41726981988177
118 40 2 0 1.43440528700128 9.86561687820591 13.2617185707204
119 40 1 0 2.39440528700128 9.86561687820591 13.2617185707204
120 40 2 0 2.63440528700128 8.93561687820591 13.2617185707204
121 41 2 0 -0.20989282711409 7.29888158192858 3.17765257903375
122 41 1 0 0.75010717288591 7.29888158192858 3.17765257903375
123 41 2 0 0.99010717288591 6.36888158192858 3.17765257903375
124 42 2 0 1.24772421360947 4.30351894040592 8.05904853274114
125 42 1 0 2.20772421360947 4.30351894040592 8.05904853274114
126 42 2 0 2.44772421360947 3.37351894040592 8.05904853274114
127 43 2 0 7.56704528859817 1.50820620049722 0.384780520107597
128 43 1 0 8.52704528859817 1.50820620049722 0.384780520107597
129 43 2 0 8.76704528859817 0.578206200497225 0.384780520107597
130 44 2 0 1.68716794738546 14.8702390670683 12.9886318137869
131 44 1 0 2.64716794738546 14.8702390670683 12.9886318137869
132 44 2 0 2.88716794738546 13.9402390670683 12.9886318137869
133 45 2 0 9.82970014491118 3.28759105800651 5.62816495075822
134 45 1 0 10.7897001449112 3.28759105800651 5.62816495075822
135 45 2 0 11.0297001449112 2.35759105800651 5.62816495075822
136 46 2 0 8.37659226774238 10.0186945455521 11.553471700754
137 46 1 0 9.33659226774238 10.0186945455521 11.553471700754
138 46 2 0 9.57659226774238 9.08869454555214 11.553471700754
139 47 2 0 13.3046520785149 14.2826461621467 12.3169407632668
140 47 1 0 14.2646520785149 14.2826461621467 12.3169407632668
141 47 2 0 14.5046520785149 13.3526461621467 12.3169407632668
142 48 2 0 9.7278307440877 7.36605922150426 7.48307603993453
143 48 1 0 10.6878307440877 7.36605922150426 7.48307603993453
144 48 2 0 10.9278307440877 6.43605922150426 7.48307603993453
145 49 2 0 1.41572714477777 3.5132327784691 0.798726259963587
146 49 1 0 2.37572714477778 3.5132327784691 0.798726259963587
147 49 2 0 2.61572714477778 2.5832327784691 0.798726259963587
148 50 2 0 3.00271234402433 11.0073057775758 5.10370461735874
149 50 1 0 3.96271234402433 11.0073057775758 5.10370461735874
150 50 2 0 4.20271234402433 10.0773057775758 5.10370461735874
151 51 2 0 10.7264183337986 0.824660177286714 9.16410165606067
152 51 1 0 11.6864183337986 0.824660177286714 9.16410165606067
153 51 2 0 11.9264183337986 -0.105339822713286 9.16410165606067
154 52 2 0 7.72275305047631 11.863969749948 5.78345522051677
155 52 1 0 8.68275305047631 11.863969749948 5.78345522051677
156 52 2 0 8.92275305047631 10.933969749948 5.78345522051677
157 53 2 0 1.16679235987365 12.8021509576961 8.11298282118514
158 53 1 0 2.12679235987365 12.8021509576961 8.11298282118514
159 53 2 0 2.36679235987365 11.8721509576961 8.11298282118514
160 54 2 0 4.76617469030432 6.38664609095082 13.287886910839
161 54 1 0 5.72617469030432 6.38664609095082 13.287886910839
162 54 2 0 5.96617469030432 5.45664609095082 13.287886910839
163 55 2 0 0.607510541304946 2.86214655888267 9.21287876903079
164 55 1 0 1.56751054130495 2.86214655888267 9.21287876903079
165 55 2 0 1.80751054130495 1.93214655888267 9.21287876903079
166 56 2 0 1.66183144829236 14.1776363625564 11.6976161766797
167 56 1 0 2.62183144829236 14.1776363625564 11.6976161766797
168 56 2 0 2.86183144829236 13.2476363625564 11.6976161766797
169 57 2 0 12.4050334961805 13.82130363415 8.33077515126206
170 57 1 0 13.3650334961805 13.82130363415 8.33077515126206
171 57 2 0 13.6050334961805 12.89130363415 8.33077515126206
172 58 2 0 7.99528496034443 8.51947146625258 11.8017585924827
173 58 1 0 8.95528496034443 8.51947146625258 11.8017585924827
174 58 2 0 9.19528496034443 7.58947146625258 11.8017585924827
175 59 2 0 -0.560487507171929 10.3141708257049 12.7273422363214
176 59 1 0 0.399512492828071 10.3141708257049 12.7273422363214
177 59 2 0 0.639512492828071 9.38417082570493 12.7273422363214
178 60 2 0 13.5633574768156 10.7647719028778 3.0576164543163
179 60 1 0 14.5233574768156 10.7647719028778 3.0576164543163
180 60 2 0 14.7633574768156 9.83477190287784 3.0576164543163
181 61 2 0 13.753041286692 13.7500344174355 1.65575240389444
182 61 1 0 14.713041286692 13.7500344174355 1.65575240389444
183 61 2 0 14.953041286692 12.8200344174355 1.65575240389444
184 62 2 0 7.53548739172518 3.47085480502807 10.4331818316132
185 62 1 0 8.49548739172518 3.47085480502807 10.4331818316132
186 62 2 0 8.73548739172518 2.54085480502807 10.4331818316132
187 63 2 0 8.91892506784759 14.2147507103533 13.9963080617599
188 63 1 0 9.87892506784759 14.2147507103533 13.9963080617599
189 63 2 0 10.1189250678476 13.2847507103533 13.9963080617599
190 64 2 0 2.54044946210459 0.680478017721325 2.47352523263544
191 64 1 0 3.50044946210459 0.680478017721325 2.47352523263544
192 64 2 0 3.74044946210459 -0.249521982278675 2.47352523263544
193 65 2 0 14.1525256032776 7.09676331648603 6.6715658409521
194 65 1 0 15.1125256032776 7.09676331648603 6.6715658409521
195 65 2 0 15.3525256032776 6.16676331648603 6.6715658409521
196 66 2 0 0.149367343839258 0.469343150444329 10.0829492881894
197 66 1 0 1.10936734383926 0.469343150444329 10.0829492881894
198 66 2 0 1.34936734383926 -0.460656849555671 10.0829492881894
199 67 2 0 13.0858116508182 11.9022889718786 14.8731491016224
200 67 1 0 14.0458116508182 11.9022889718786 14.8731491016224
201 67 2 0 14.2858116508182 10.9722889718786 14.8731491016224
202 68 2 0 10.5810141032282 1.54324512271211 7.86400559940375
203 68 1 0 11.5410141032282 1.54324512271211 7.86400559940375
204 68 2 0 11.7810141032282 0.613245122712105 7.86400559940375
205 69 2 0 8.94733845183626 7.02204006066546 6.73037358443253
206 69 1 0 9.90733845183626 7.02204006066546 6.73037358443253
207 69 2 0 10.1473384518363 6.09204006066546 6.73037358443253
208 70 2 0 2.16191564264707 4.62032772641629 6.72219312284142
209 70 1 0 3.12191564264707 4.62032772641629 6.72219312284142
210 70 2 0 3.36191564264707 3.69032772641629 6.72219312284142
211 71 2 0 12.0595138035435 12.7708478602022 7.49026386067271
212 71 1 0 13.0195138035435 12.7708478602022 7.49026386067271
213 71 2 0 13.2595138035435 11.8408478602022 7.49026386067271
214 72 2 0 9.96023474654183 10.8727202545293 0.85293417214416
215 72 1 0 10.9202347465418 10.8727202545293 0.85293417214416
216 72 2 0 11.1602347465418 9.94272025452927 0.85293417214416
217 73 2 0 6.8123590671178 12.5954659939185 1.15651866886765
218 73 1 0 7.7723590671178 12.5954659939185 1.15651866886765
219 73 2 0 8.0123590671178 11.6654659939185 1.15651866886765
220 74 2 0 12.7290295581054 1.41456999740563 7.17911184648983
221 74 1 0 13.6890295581054 1.41456999740563 7.17911184648983
222 74 2 0 13.9290295581054 0.484569997405633 7.17911184648983
223 75 2 0 1.39879398557357 9.79981550522149 12.473733338993
224 75 1 0 2.35879398557358 9.79981550522149 12.473733338993
225 75 2 0 2.59879398557358 8.86981550522149 12.473733338993
226 76 2 0 7.63938814328983 14.7359703834541 9.57578937057406
227 76 1 0 8.59938814328983 14.7359703834541 9.57578937057406
228 76 2 0 8.83938814328983 13.8059703834541 9.57578937057406
229 77 2 0 4.0840683043655 3.75559793244116 8.88445279444568
230 77 1 0 5.0440683043655 3.75559793244116 8.88445279444568
231 77 2 0 5.2840683043655 2.82559793244116 8.88445279444568
232 78 2 0 0.922163411015645 9.70999313442968 12.6279512944166
233 78 1 0 1.88216341101564 9.70999313442968 12.6279512944166
234 78 2 0 2.12216341101564 8.77999313442968 12.6279512944166
235 79 2 0 5.25035268321633 4.43714493111707 2.60490116779692
236 79 1 0 6.21035268321633 4.43714493111707 2.60490116779692
237 79 2 0 6.45035268321633 3.50714493111707 2.60490116779692
238 80 2 0 11.565586707294 0.874384892350063 12.2198418423068
239 80 1 0 12.525586707294 0.874384892350063 12.2198418423068
240 80 2 0 12.765586707294 -0.0556151076499373 12.2198418423068
241 81 2 0 4.47960448611528 15.1708534713276 0.0367981090676039
242 81 1 0 5.43960448611528 15.1708534713276 0.0367981090676039
243 81 2 0 5.67960448611528 14.2408534713276 0.0367981090676039
244 82 2 0 3.55115997998044 10.8970959360618 1.59176837070845
245 82 1 0 4.51115997998044 10.8970959360618 1.59176837070845
246 82 2 0 4.75115997998044 9.96709593606182 1.59176837070845
247 83 2 0 2.69814694460481 8.14869944978505 7.80243021436036
248 83 1 0 3.65814694460481 8.14869944978505 7.80243021436036
249 83 2 0 3.89814694460481 7.21869944978505 7.80243021436036
250 84 2 0 0.936989321345463 7.78330229380168 11.8428358796518
251 84 1 0 1.89698932134546 7.78330229380168 11.8428358796518
252 84 2 0 2.13698932134546 6.85330229380168 11.8428358796518
253 85 2 0 11.4302246463206 12.8805207290594 9.84715605969541
254 85 1 0 12.3902246463206 12.8805207290594 9.84715605969541
255 85 2 0 12.6302246463206 11.9505207290594 9.84715605969541
256 86 2 0 5.472052467959 6.7330966498144 7.19763203873299
257 86 1 0 6.432052467959 6.7330966498144 7.19763203873299
258 86 2 0 6.672052467959 5.8030966498144 7.19763203873299
259 87 2 0 6.29578766573221 12.4020305105392 3.88673899811693
260 87 1 0 7.25578766573221 12.4020305105392 3.88673899811693
261 87 2 0 7.49578766573221 11.4720305105392 3.88673899811693
262 88 2 0 6.22807754829526 13.1116228054184 8.55656401254237
263 88 1 0 7.18807754829526 13.1116228054184 8.55656401254237
264 88 2 0 7.42807754829526 12.1816228054184 8.55656401254237
265 89 2 0 6.60528829830699 10.9805318833701 2.51960651949048
266 89 1 0 7.56528829830699 10.9805318833701 2.51960651949048
267 89 2 0 7.80528829830699 10.0505318833701 2.51960651949048
268 90 2 0 2.32502723389305 10.0353844828811 5.24230650393292
269 90 1 0 3.28502723389305 10.0353844828811 5.24230650393292
270 90 2 0 3.52502723389305 9.10538448288106 5.24230650393292
271 91 2 0 2.53438154744916 13.2610854452383 14.8078594438266
272 91 1 0 3.49438154744916 13.2610854452383 14.8078594438266
273 91 2 0 3.73438154744916 12.3310854452383 14.8078594438266
274 92 2 0 10.9786063169315 9.54075347789563 14.7557580436114
275 92 1 0 11.9386063169315 9.54075347789563 14.7557580436114
276 92 2 0 12.1786063169315 8.61075347789563 14.7557580436114
277 93 2 0 5.48388048933819 13.377902388284 3.82084553246386
278 93 1 0 6.44388048933819 13.377902388284 3.82084553246386
279 93 2 0 6.68388048933819 12.447902388284 3.82084553246386
280 94 2 0 6.39418395512737 13.8252510355692 13.1812957045622
281 94 1 0 7.35418395512737 13.8252510355692 13.1812957045622
282 94 2 0 7.59418395512737 12.8952510355692 13.1812957045622
283 95 2 0 8.42177831844427 4.42329758702777 0.0381151086185127
284 95 1 0 9.38177831844427 4.42329758702777 0.0381151086185127
285 95 2 0 9.62177831844427 3.49329758702777 0.0381151086185127
286 96 2 0 5.45972349864431 3.2915533652436 8.11985531821847
287 96 1 0 6.41972349864431 3.2915533652436 8.11985531821847
288 96 2 0 6.65972349864431 2.3615533652436 8.11985531821847
289 97 2 0 6.39603624746203 8.13605744432658 8.1056501402054
290 97 1 0 7.35603624746203 8.13605744432658 8.1056501402054
291 97 2 0 7.59603624746203 7.20605744432658 8.1056501402054
292 98 2 0 8.41998823380098 3.76600903849117 1.54036059044302
293 98 1 0 9.37998823380098 3.76600903849117 1.54036059044302
294 98 2 0 9.61998823380098 2.83600903849117 1.54036059044302
295 99 2 0 -0.197830287069082 2.79773139901459 5.83052043803036
296 99 1 0 0.762169712930918 2.79773139901459 5.83052043803036
297 99 2 0 1.00216971293092 1.86773139901459 5.83052043803036
298 100 2 0 0.436821950571612 2.81482715666294 2.73050244315527
299 100 1 0 1.39682195057161 2.81482715666294 2.73050244315527
300 100 2 0 1.63682195057161 1.88482715666294 2.73050244315527
301 101 2 0 3.52865123466589 0.498465538667515 13.3220325282309
302 101 1 0 4.48865123466589 0.498465538667515 13.3220325282309
303 101 2 0 4.72865123466589 -0.431534461332485 13.3220325282309
304 102 2 0 3.70644840572029 11.3651343334373 6.26705669565126
305 102 1 0 4.66644840572029 11.3651343334373 6.26705669565126
306 102 2 0 4.90644840572029 10.4351343334373 6.26705669565126
307 103 2 0 2.83298983049579 11.3837174493261 6.54564682161435
308 103 1 0 3.79298983049579 11.3837174493261 6.54564682161435
309 103 2 0 4.03298983049579 10.4537174493261 6.54564682161435
310 104 2 0 5.45866285261698 6.59500136197545 3.70099446969107
311 104 1 0 6.41866285261698 6.59500136197545 3.70099446969107
312 104 2 0 6.65866285261698 5.66500136197545 3.70099446969107
313 105 2 0 4.38960774379782 3.30181345035322 13.2015701802447
314 105 1 0 5.34960774379782 3.30181345035322 13.2015701802447
315 105 2 0 5.58960774379782 2.37181345035322 13.2015701802447
316 106 2 0 3.79129831373692 6.68383992783725 10.5402699520346
317 106 1 0 4.75129831373692 6.68383992783725 10.5402699520346
318 106 2 0 4.99129831373692 5.75383992783725 10.5402699520346
319 107 2 0 6.35911964971572 14.9199111996591 0.0278379523660988
320 107 1 0 7.31911964971572 14.9199111996591 0.0278379523660988
321 107 2 0 7.55911964971572 13.9899111996591 0.0278379523660988
322 108 2 0 9.09096190167591 11.9966895661224 9.50004036189057
323 108 1 0 10.0509619016759 11.9966895661224 9.50004036189057
324 108 2 0 10.2909619016759 11.0666895661224 9.50004036189057
325 109 2 0 2.17194720913656 11.296392396735 7.20328139606863
326 109 1 0 3.13194720913656 11.296392396735 7.20328139606863
327 109 2 0 3.37194720913656 10.366392396735 7.20328139606863
328 110 2 0 12.7768267916702 9.00490353157744 3.59335987013765
329 110 1 0 13.7368267916702 9.00490353157744 3.59335987013765
330 110 2 0 13.9768267916702 8.07490353157744 3.59335987013765
331 111 2 0 12.4238096228521 1.32972397649661 11.714139834512
332 111 1 0 13.3838096228521 1.32972397649661 11.714139834512
333 111 2 0 13.6238096228521 0.399723976496607 11.714139834512
334 112 2 0 3.38935729974881 6.45393714116886 4.65491223265417
335 112 1 0 4.34935729974881 6.45393714116886 4.65491223265417
336 112 2 0 4.58935729974881 5.52393714116886 4.65491223265417
337 113 2 0 3.63934416716918 13.4750850200094 6.49348450941034
338 113 1 0 4.59934416716918 13.4750850200094 6.49348450941034
339 113 2 0 4.83934416716918 12.5450850200094 6.49348450941034
340 114 2 0 13.9906258047279 4.85205646878108 13.2042639388237
341 114 1 0 14.9506258047279 4.85205646878108 13.2042639388237
342 114 2 0 15.1906258047279 3.92205646878108 13.2042639388237
343 115 2 0 3.28921042193659 9.29415281204507 4.26519303931855
344 115 1 0 4.24921042193659 9.29415281204507 4.26519303931855
345 115 2 0 4.48921042193659 8.36415281204507 4.26519303931855
346 116 2 0 7.54669999281876 13.1584922181815 13.0215851438697
347 116 1 0 8.50669999281876 13.1584922181815 13.0215851438697
348 116 2 0 8.74669999281876 12.2284922181815 13.0215851438697
349 117 2 0 2.21941257172264 3.37625429540873 8.5876767989248
350 117 1 0 3.17941257172264 3.37625429540873 8.5876767989248
351 117 2 0 3.41941257172264 2.44625429540873 8.5876767989248
352 118 2 0 10.8184135313798 4.4251491808705 7.91638345574029
353 118 1 0 11.7784135313798 4.4251491808705 7.91638345574029
354 118 2 0 12.0184135313798 3.4951491808705 7.91638345574029
355 119 2 0 4.20512011318468 4.67606777715497 4.47963689337485
356 119 1 0 5.16512011318468 4.67606777715497 4.47963689337485
357 119 2 0 5.40512011318468 3.74606777715497 4.47963689337485
358 120 2 0 10.8354534026887 4.572295687804 6.06269794050604
359 120 1 0 11.7954534026887 4.572295687804 6.06269794050604
360 120 2 0 12.0354534026887 3.642295687804 6.06269794050604
361 121 2 0 0.518539041951299 10.9220133853983 0.26061792857945
362 121 1 0 1.4785390419513 10.9220133853983 0.26061792857945
363 121 2 0 1.7185390419513 9.99201338539831 0.26061792857945
364 122 2 0 2.01419156321324 6.0393899403885 0.286177152302116
365 122 1 0 2.97419156321324 6.0393899403885 0.286177152302116
366 122 2 0 3.21419156321324 5.1093899403885 0.286177152302116
367 123 2 0 13.0600232169684 5.37983215571381 9.15316790342331
368 123 1 0 14.0200232169684 5.37983215571381 9.15316790342331
369 123 2 0 14.2600232169684 4.44983215571381 9.15316790342331
370 124 2 0 9.55151659014635 5.36180521053262 11.21897508041
371 124 1 0 10.5115165901463 5.36180521053262 11.21897508041
372 124 2 0 10.7515165901463 4.43180521053262 11.21897508041
373 125 2 0 4.96825568421744 2.79055805801414 1.59551168326288
374 125 1 0 5.92825568421744 2.79055805801414 1.59551168326288
375 125 2 0 6.16825568421744 1.86055805801414 1.59551168326288
376 126 2 0 0.912945814635605 5.35573253216222 13.8275164389051
377 126 1 0 1.8729458146356 5.35573253216222 13.8275164389051
378 126 2 0 2.1129458146356 4.42573253216222 13.8275164389051
379 127 2 0 11.3391327280272 6.54551498982124 0.6477862293832
380 127 1 0 12.2991327280272 6.54551498982124 0.6477862293832
381 127 2 0 12.5391327280272 5.61551498982124 0.6477862293832
382 128 2 0 13.8172751145624 5.37887649302371 12.5302829837892
383 128 1 0 14.7772751145624 5.37887649302371 12.5302829837892
384 128 2 0 15.0172751145624 4.44887649302371 12.5302829837892
385 129 2 0 5.52671482597478 2.62831020792015 11.7434061295353
386 129 1 0 6.48671482597478 2.62831020792015 11.7434061295353
387 129 2 0 6.72671482597478 1.69831020792015 11.7434061295353
388 130 2 0 9.75736822860315 2.27089867968112 5.16634071129374
389 130 1 0 10.7173682286032 2.27089867968112 5.16634071129374
390 130 2 0 10.9573682286032 1.34089867968112 5.16634071129374
391 131 2 0 7.87349981881678 9.43189711467363 12.0101875788532
392 131 1 0 8.83349981881678 9.43189711467363 12.0101875788532
393 131 2 0 9.07349981881678 8.50189711467363 12.0101875788532
394 132 2 0 7.43418900107034 13.9401121173892 3.340143825626
395 132 1 0 8.39418900107034 13.9401121173892 3.340143825626
396 132 2 0 8.63418900107034 13.0101121173892 3.340143825626
397 133 2 0 -0.289490941939875 9.96853919275105 9.84797878540121
398 133 1 0 0.670509058060125 9.96853919275105 9.84797878540121
399 133 2 0 0.910509058060124 9.03853919275105 9.84797878540121
400 134 2 0 1.66300968543626 4.58838441566564 7.73132121074013
401 134 1 0 2.62300968543626 4.58838441566564 7.73132121074013
402 134 2 0 2.86300968543626 3.65838441566564 7.73132121074013
403 135 2 0 8.4967785402853 2.35375241650268 13.0419389856979
404 135 1 0 9.4567785402853 2.35375241650268 13.0419389856979
405 135 2 0 9.6967785402853 1.42375241650268 13.0419389856979
406 136 2 0 10.4070480626263 3.19147081504576 7.07825944642536
407 136 1 0 11.3670480626263 3.19147081504576 7.07825944642536
408 136 2 0 11.6070480626263 2.26147081504576 7.07825944642536
409 137 2 0 3.36541533979587 2.53506810445338 2.90968057466671
410 137 1 0 4.32541533979587 2.53506810445338 2.90968057466671
411 137 2 0 4.56541533979587 1.60506810445338 2.90968057466671
412 138 2 0 6.21819676525891 9.14217663154937 10.0513005594257
413 138 1 0 7.17819676525891 9.14217663154937 10.0513005594257
414 138 2 0 7.41819676525891 8.21217663154937 10.0513005594257
415 139 2 0 3.90734827771783 13.8934988590796 9.66430043801665
416 139 1 0 4.86734827771783 13.8934988590796 9.66430043801665
417 139 2 0 5.10734827771783 12.9634988590796 9.66430043801665
418 140 2 0 3.73387602900155 7.97187207540497 4.27147919428535
419 140 1 0 4.69387602900155 7.97187207540497 4.27147919428535
420 140 2 0 4.93387602900155 7.04187207540497 4.27147919428535
421 141 2 0 7.66483577594161 12.2902206440363 13.2624604459852
422 141 1 0 8.62483577594161 12.2902206440363 13.2624604459852
423 141 2 0 8.86483577594161 11.3602206440363 13.2624604459852
424 142 2 0 10.4156194666587 2.19614503946155 12.4735210568178
425 142 1 0 11.3756194666587 2.19614503946155 12.4735210568178
426 142 2 0 11.6156194666587 1.26614503946155 12.4735210568178
427 143 2 0 14.2277156822104 13.9589842622541 10.6676048389636
428 143 1 0 15.1877156822104 13.9589842622541 10.6676048389636
429 143 2 0 15.4277156822104 13.0289842622541 10.6676048389636
430 144 2 0 1.11905279380269 5.0686480283644 0.416614649584517
431 144 1 0 2.07905279380269 5.0686480283644 0.416614649584517
432 144 2 0 2.31905279380269 4.1386480283644 0.416614649584517
433 145 2 0 4.98288851042278 13.7977072740346 0.113851429196075
434 145 1 0 5.94288851042278 13.7977072740346 0.113851429196075
435 145 2 0 6.18288851042278 12.8677072740346 0.113851429196075
436 146 2 0 11.6858783543296 2.93178855831735 5.34826098592021
437 146 1 0 12.6458783543296 2.93178855831735 5.34826098592021
438 146 2 0 12.8858783543296 2.00178855831735 5.34826098592021
439 147 2 0 10.5157307877392 0.338741465648636 9.18999780784361
440 147 1 0 11.4757307877392 0.338741465648636 9.18999780784361
441 147 2 0 11.7157307877392 -0.591258534351364 9.18999780784361
442 148 2 0 8.79241450267844 6.41049630049616 4.82134884106927
443 148 1 0 9.75241450267844 6.41049630049616 4.82134884106927
444 148 2 0 9.99241450267844 5.48049630049616 4.82134884106927
445 149 2 0 -0.0772293757461011 8.71121535235085 14.0740803116933
446 149 1 0 0.882770624253899 8.71121535235085 14.0740803116933
447 149 2 0 1.1227706242539 7.78121535235085 14.0740803116933
448 150 2 0 2.38196136008017 5.04272511735558 7.77159872464836
449 150 1 0 3.34196136008017 5.04272511735558 7.77159872464836
450 150 2 0 3.58196136008017 4.11272511735558 7.77159872464836
451 151 2 0 2.38287852189504 8.84587914141826 0.273353203665465
452 151 1 0 3.34287852189504 8.84587914141826 0.273353203665465
453 151 2 0 3.58287852189504 7.91587914141826 0.273353203665465
454 152 2 0 1.16712402479723 9.91598082165234 13.7339807243552
455 152 1 0 2.12712402479723 9.91598082165234 13.7339807243552
456 152 2 0 2.36712402479723 8.98598082165234 13.7339807243552
457 153 2 0 2.29897293305956 10.5521795204282 11.9392162410077
458 153 1 0 3.25897293305956 10.5521795204282 11.9392162410077
459 153 2 0 3.49897293305956 9.62217952042818 11.9392162410077
460 154 2 0 2.21193455552682 8.115452470202 14.1795062483288
461 154 1 0 3.17193455552682 8.115452470202 14.1795062483288
462 154 2 0 3.41193455552682 7.185452470202 14.1795062483288
463 155 2 0 2.5500939453207 7.58633964270353 3.76288412022404
464 155 1 0 3.5100939453207 7.58633964270353 3.76288412022404
465 155 2 0 3.7500939453207 6.65633964270353 3.76288412022404
466 156 2 0 -0.18841572644189 13.216262826873 9.44462777464651
467 156 1 0 0.77158427355811 13.216262826873 9.44462777464651
468 156 2 0 1.01158427355811 12.286262826873 9.44462777464651
469 157 2 0 0.641909955739975 14.2610215644259 5.7591459271498
470 157 1 0 1.60190995573997 14.2610215644259 5.7591459271498
471 157 2 0 1.84190995573997 13.3310215644259 5.7591459271498
472 158 2 0 7.15827287684195 8.56812599388883 4.7645179729443
473 158 1 0 8.11827287684195 8.56812599388883 4.7645179729443
474 158 2 0 8.35827287684195 7.63812599388883 4.7645179729443
475 159 2 0 7.49289955289103 11.4197607645206 11.9898025807925
476 159 1 0 8.45289955289103 11.4197607645206 11.9898025807925
477 159 2 0 8.69289955289103 10.4897607645206 11.9898025807925