LAMMPS (29 Sep 2021 - Update 1)
# Test LAMMPS input file for single DeFDe

# Initialize simulation

clear

units real
atom_style full
boundary p p p
dielectric 1
special_bonds dreiding

bond_style harmonic
angle_style harmonic
dihedral_style harmonic
improper_style umbrella
pair_style hybrid/overlay hbond/dreiding/lj 4 9.0 11.0 90 lj/cut 8.50000

# Read data file
read_data frag5.dat
Reading data file ...
  triclinic box = (0.0000000 0.0000000 0.0000000) to (15.000000 15.000000 15.000000) with tilt (0.0000000 0.0000000 0.0000000)
  2 by 4 by 4 MPI processor grid
  reading atoms ...
  1503 atoms
  scanning bonds ...
  2 = max bonds/atom
  scanning angles ...
  1 = max angles/atom
  reading bonds ...
  1002 bonds
  reading angles ...
  501 angles
Finding 1-2 1-3 1-4 neighbors ...
  special bond factors lj:    0        0        1       
  special bond factors coul:  0        0        1       
     2 = max # of 1-2 neighbors
     1 = max # of 1-3 neighbors
     2 = max # of special neighbors
  special bonds CPU = 0.002 seconds
  read_data CPU = 0.016 seconds

# Dreiding potential information

bond_coeff 1 350 0.98

angle_coeff 1 50 104.51


improper_coeff 1 40 0

pair_coeff 1 1 lj/cut 0.0957 3.4046
pair_coeff 1 2 lj/cut 0.0030935416596516 3.29710294046152
pair_coeff 2 2 lj/cut 1e-04 3.193
pair_coeff 1 1 hbond/dreiding/lj 2 j 9.50 2.75 4 9.0 11.0 90

neighbor 2 bin
neigh_modify every 2 one 10000

# Gemoetric relaxation
fix 1 all box/relax iso 1.0 vmax 0.001
minimize 1.0e-4 1.0e-6 10000 10000
WARNING: Using 'neigh_modify every 1 delay 0 check yes' setting during minimization (../min.cpp:188)
Neighbor list info ...
  update every 1 steps, delay 0 steps, check yes
  max neighbors/atom: 10000, page size: 100000
  master list distance cutoff = 13
  ghost atom cutoff = 13
  binsize = 6.5, bins = 3 3 3
  3 neighbor lists, perpetual/occasional/extra = 3 0 0
  (1) pair hbond/dreiding/lj, perpetual, skip from (3)
      attributes: full, newton on
      pair build: skip
      stencil: none
      bin: none
  (2) pair lj/cut, perpetual, half/full from (3)
      attributes: half, newton on
      pair build: halffull/newton
      stencil: none
      bin: none
  (3) neighbor class addition, perpetual
      attributes: full, newton on
      pair build: full/bin
      stencil: full/bin/3d
      bin: standard
Per MPI rank memory allocation (min/avg/max) = 9.339 | 9.662 | 10.02 Mbytes
Step Temp E_pair E_mol TotEng Press Volume 
       0            0 1.6988757e+16    275.09017 1.6988757e+16 1.3806129e+18         3375 
    5114            0   -1044.9881    19.478369   -1025.5097    109.72145    38760.619 
Loop time of 4.76258 on 32 procs for 5114 steps with 1503 atoms

100.0% CPU use with 32 MPI tasks x no OpenMP threads

Minimization stats:
  Stopping criterion = energy tolerance
  Energy initial, next-to-last, final = 
    1.69887566781692e+16  -1024.89270402004   -1024.9936186248
  Force two-norm initial, final = 1.2684045e+18 111.29952
  Force max component initial, final = 4.6466028e+17 81.720451
  Final line search alpha, max atom move = 1.6627583e-05 0.0013588136
  Iterations, force evaluations = 5114 5116

MPI task timing breakdown:
Section |  min time  |  avg time  |  max time  |%varavg| %total
---------------------------------------------------------------
Pair    | 0.99572    | 2.4872     | 4.0776     |  43.0 | 52.22
Bond    | 0.0050437  | 0.010199   | 0.014407   |   2.0 |  0.21
Neigh   | 0.094249   | 0.094663   | 0.094869   |   0.1 |  1.99
Comm    | 0.24872    | 1.8398     | 3.3356     |  50.1 | 38.63
Output  | 0          | 0          | 0          |   0.0 |  0.00
Modify  | 0          | 0          | 0          |   0.0 |  0.00
Other   |            | 0.3307     |            |       |  6.94

Nlocal:        46.9688 ave          68 max          20 min
Histogram: 1 2 2 3 2 8 6 1 6 1
Nghost:        1896.59 ave        2003 max        1795 min
Histogram: 4 10 2 0 0 0 0 5 7 4
Neighs:        4770.19 ave        7520 max        1837 min
Histogram: 2 2 4 2 3 7 6 1 3 2

Total # of neighbors = 152646
Ave neighs/atom = 101.56088
Ave special neighs/atom = 2.0000000
Neighbor list builds = 90
Dangerous builds = 0

# MD simulation
velocity all create 300.0 12345 rot yes dist gaussian
timestep 1.0
fix 2 all nvt temp 300.0 300.0 1

# Compute interaction energy
group WAT molecule <> 2 501
1500 atoms in group WAT
group MOL molecule 1
3 atoms in group MOL

compute w WAT group/group MOL pair yes
fix 3 all ave/time 10 5 100 c_w file outa

# Outputs
thermo 100 # Output thermodynamic data every nth step
#dump mf1 all xyz 10000 mol_*.xyz

# Run
run 1000000
Neighbor list info ...
  update every 2 steps, delay 10 steps, check yes
  max neighbors/atom: 10000, page size: 100000
  master list distance cutoff = 13
  ghost atom cutoff = 13
  binsize = 6.5, bins = 6 6 6
  4 neighbor lists, perpetual/occasional/extra = 3 1 0
  (1) pair hbond/dreiding/lj, perpetual, skip from (4)
      attributes: full, newton on
      pair build: skip
      stencil: none
      bin: none
  (2) pair lj/cut, perpetual, half/full from (4)
      attributes: half, newton on
      pair build: halffull/newton
      stencil: none
      bin: none
  (3) compute group/group, occasional, copy from (2)
      attributes: half, newton on
      pair build: copy
      stencil: none
      bin: none
  (4) neighbor class addition, perpetual
      attributes: full, newton on
      pair build: full/bin
      stencil: full/bin/3d
      bin: standard
Per MPI rank memory allocation (min/avg/max) = 8.188 | 8.211 | 8.484 Mbytes
Step Temp E_pair E_mol TotEng Press Volume 
    5114          300   -1044.9881    19.478369    317.64333    1693.7669    38760.619 
    5200    294.60217   -1119.7314    182.43334    381.68787    -57.01243    38760.619 
    5300    300.05366   -1103.1919    148.57302    388.77442   -669.40698    38760.619 
    5400    294.11981   -1109.4216      162.842    370.24676   -145.14627    38760.619 
    5500    306.39181   -1104.6468    175.00661    442.13007    378.15519    38760.619 
    5600    296.93247   -1089.1006    176.42529    416.74384   -70.467266    38760.619 
    5700    303.43674   -1094.5902    165.86999     429.8197    201.58237    38760.619 
    5800    303.73866   -1098.5495    161.91618    423.25832    372.45975    38760.619 
    5900    301.44363   -1080.3929    163.57026    432.79375   -161.76777    38760.619 
    6000     293.5525      -1082.1    179.93701    412.12346    443.32207    38760.619 
    6100    310.39532     -1117.42    167.38485    439.65956    517.16944    38760.619 
    6200    301.10482    -1142.131     166.5758    372.54428    148.34006    38760.619 
    6300    305.87161   -1075.6773    175.96989    469.73382    306.06024    38760.619 
    6400    290.14301   -1061.2384    176.94695    414.73004    218.97236    38760.619 
    6500    292.96669   -1034.6006    187.96357    465.02661   -91.829152    38760.619 
    6600    298.88852   -1069.4628    189.74613    458.46003    90.026626    38760.619 
    6700    296.34026   -1087.4167    182.08393    421.43492    158.39276    38760.619 
    6800    302.21319   -1075.0521    179.61438    457.62409    96.665979    38760.619 
    6900    306.38319   -1092.4881    195.51322    474.75685     175.5091    38760.619 
    7000     300.7681   -1089.5701    179.97811    436.99992    15.217029    38760.619 
    7100    312.17941    -1044.282    190.02893    543.42928    579.82003    38760.619 
    7200    290.93333   -1102.8557    194.58517    394.28943    52.772338    38760.619 
    7300    298.98299   -1072.8392    187.63815     453.3986      30.4715    38760.619 
    7400    309.94009   -1100.2486    194.25481     481.6628    193.10844    38760.619 
    7500     297.6712   -1147.7444    203.85711    388.83928    486.14163    38760.619 
    7600    299.14357   -1099.7011    203.22108    442.83861    515.08206    38760.619 
    7700    290.49625   -1124.2504    220.02007    396.37269   -30.790646    38760.619 
    7800     291.7377   -1150.8635    194.25759    349.55528    100.28781    38760.619 
    7900    305.03195   -1119.1231    207.96351    454.52231    222.45919    38760.619 
    8000    300.06166   -1134.6912    210.59891    419.33678    -21.92247    38760.619 
    8100    293.45457   -1117.4731    198.65471    395.02959    347.65754    38760.619 
    8200    293.77075   -1160.4406     217.6322    372.45517    439.91958    38760.619 
    8300    309.24733    -1150.393    204.62582    438.78776    228.82794    38760.619 
    8400    294.09828   -1129.3483     215.9727    403.35438    178.27468    38760.619 
    8500    301.49627   -1137.1933    213.67086    426.32963    161.94052    38760.619 
    8600    299.35671    -1142.692    215.79319    413.37409    747.60507    38760.619 
    8700    297.63433   -1142.9928    211.70786    401.27649    565.93809    38760.619 
    8800    312.80523   -1140.1378     218.5131    478.85954    466.82597    38760.619 
    8900    305.56886   -1148.9622    227.80292    446.92653    160.03806    38760.619 
    9000    304.70738   -1179.5897    210.06414    394.70327    159.41935    38760.619 
    9100    298.94175   -1147.5768    215.57176    406.41002    269.27103    38760.619 
    9200    306.66555    -1174.826    219.73523    417.90512    235.42354    38760.619 
    9300    299.48065   -1145.2461    218.32509    413.90684    468.64347    38760.619 
    9400     301.9725    -1097.752    213.98588    468.21814    468.17279    38760.619 
    9500    292.38943   -1129.2741    221.49496    401.29999    703.07949    38760.619 
    9600    298.13235   -1150.0066    222.40477    407.18942    799.50553    38760.619 
    9700    298.57565   -1125.9033    222.79195    433.66463    196.43638    38760.619 
    9800    299.71366   -1129.8384    204.90389    416.93652   -491.26893    38760.619 
    9900    308.97202   -1116.5223    232.79404    499.59405   -117.26197    38760.619 
   10000    304.69251   -1133.7049     217.7927    448.25004    416.95271    38760.619 
   10100    313.54248   -1129.2958    236.31521    510.80448    440.76863    38760.619 
   10200    294.29107   -1163.6364    225.60803    379.56473   -157.97738    38760.619 
   10300    304.75445   -1105.9503    222.77466     481.2639    462.45028    38760.619 
   10400    298.00496   -1165.0189    228.56514    397.76714     240.9969    38760.619 
   10500    302.20814   -1120.0757    236.65343      469.617    556.17388    38760.619 
   10600    291.27872   -1128.2994    223.43833    399.24526    458.32438    38760.619 
   10700    294.87916   -1139.3332    229.08339    409.97629    262.74147    38760.619 
   10800    295.90637   -1127.2345    237.78779    435.37842    484.71647    38760.619 
   10900    287.07586   -1108.6083    226.51583    403.19687    599.89097    38760.619 
   11000    302.65096   -1119.5046    242.66727    478.18454    447.68931    38760.619 
   11100    307.60536   -1094.4677    225.83931    508.57511    628.68513    38760.619 
   11200    294.95246   -1130.9111    230.30665     419.9499     691.7756    38760.619 
   11300    305.18451   -1136.9346     243.5954    473.02572    149.74354    38760.619 
   11400    309.81967   -1145.6858    220.06949    461.50115    94.061304    38760.619 
   11500    305.15806    -1146.366    221.31689    441.19738    374.92574    38760.619 
   11600    306.52506    -1165.296    235.42434     442.4952   -148.08513    38760.619 
   11700    300.81807   -1125.4473    232.92943    454.29779    363.43972    38760.619 
   11800    306.67515   -1168.6076    236.49478    440.92604   -76.842251    38760.619 
   11900     311.2639    -1163.654    226.70868    456.63817    110.53115    38760.619 
   12000    305.99738   -1151.8676    237.76562    455.90235    496.51729    38760.619 
   12100    304.37092   -1160.0611    228.78686    431.44814     343.2851    38760.619 
   12200    292.91242   -1157.6838    229.63679    383.37362    703.63944    38760.619 
   12300    297.16672   -1169.6759    239.78468    400.57668    513.21341    38760.619 
   12400    305.16495   -1120.3643    224.50326    470.41643    770.36003    38760.619 
   12500    299.52639   -1163.1845     240.1368    417.98488    897.43782    38760.619 
   12600    302.39433   -1177.7094    239.14429    415.30777    768.04604    38760.619 
   12700    293.75222   -1146.9597    233.31537    401.53629    606.23827    38760.619 
   12800    299.41507   -1119.2878    259.77969    481.02607    686.34843    38760.619 
   12900    302.88963   -1083.9531    238.71849    510.85583    630.06807    38760.619 
   13000    297.74893   -1091.5359    244.64358    486.18228    813.65387    38760.619 
   13100    295.85873   -1161.6973    233.27301    396.18749    379.11996    38760.619 
   13200      296.842   -1155.4326    245.80968    419.39119    534.96207    38760.619 
   13300    298.48919   -1098.1548    238.89381    477.12783    454.31135    38760.619 
   13400    294.12685   -1119.4142    244.53356    441.97725   -215.17712    38760.619 
   13500    309.47148   -1188.9519    241.30192    437.90853   -692.23186    38760.619 
   13600    299.08347   -1142.6593    247.66836    444.05867   -36.737763    38760.619 
   13700    304.92061   -1146.0924    232.18209    451.27317   -214.83586    38760.619 
   13800    310.59549   -1103.3303    255.87087    543.13141    191.00263    38760.619 
   13900    303.76426   -1072.1558    244.50186    532.35237    521.83069    38760.619 
   14000    304.17822   -1065.4866    237.27738    533.65039    378.07254    38760.619 
   14100     294.7262   -1082.5774    264.93616    501.90004     266.0362    38760.619 
   14200    295.22952   -1136.8058    232.89727    417.88623    389.50482    38760.619 
   14300    310.66735   -1130.2519    239.94761    500.60827    227.47546    38760.619 
   14400    301.04128   -1177.2331    243.60585    414.18781    332.17944    38760.619 
   14500    298.46954   -1151.7138    234.41256    418.99967    845.68745    38760.619 
   14600    295.34174    -1150.099    242.75385    414.95201    428.21709    38760.619 
   14700    301.51894   -1171.3821    253.46901    432.04048    358.03945    38760.619 
   14800    308.41231   -1155.8019    248.23141    473.24587    492.93741    38760.619 
   14900    299.31527    -1142.006    243.52946    441.61083    754.72802    38760.619 
   15000    299.29669   -1184.7853    245.73173    400.95058    285.23415    38760.619 
   15100    301.68534   -1173.9723    261.83311    438.55938    661.08906    38760.619 
   15200      294.913   -1152.0521    260.01734    428.34283     488.7934    38760.619 
   15300    304.73099   -1161.0754    257.14135    460.40045    975.99947    38760.619 
   15400    301.48831   -1181.8836     257.2421     425.1749    455.08232    38760.619 
   15500    311.79755   -1146.8776    256.63234    505.72751    709.54706    38760.619 
   15600    303.97897   -1125.4659    271.37885    506.88046    568.02448    38760.619 
   15700    289.89496   -1142.0258    274.46962    430.35473    317.96792    38760.619 
   15800    303.62973   -1179.4161    252.14485    432.13267    693.47865    38760.619 
   15900    294.93759   -1180.5543    280.49117     420.4246    524.88439    38760.619 
   16000    295.44051    -1182.878    263.99618    403.85753    694.08848    38760.619 
   16100    294.67965   -1186.8361    259.56535    392.06208    53.479071    38760.619 
   16200     292.5533   -1231.7683    267.88601    345.93051   -158.82106    38760.619 
   16300    304.18317    -1168.387    260.33298    453.82774   -93.187179    38760.619 
   16400     302.8966   -1154.0794    260.20123    462.24339    223.48935    38760.619 
   16500    289.43317   -1154.0129    274.52807    416.35868    45.362966    38760.619 
   16600    295.84315   -1172.5329    282.73102    434.74022    35.138311    38760.619 
   16700    299.01958   -1208.1852    250.80811    381.38644    46.251443    38760.619 
   16800    315.16185   -1141.0425    268.90109    538.89391    25.627834    38760.619 
   16900    299.37766   -1142.6474     269.4107    467.12995     533.1647    38760.619 
   17000    298.43076     -1123.25    265.76322    478.64049    291.21856    38760.619 
   17100    303.16209   -1204.7654    269.46849     422.0133     493.9539    38760.619 
   17200    294.04385   -1139.8971    268.41904     445.0082    682.08382    38760.619 
   17300    305.91256   -1186.2892     263.7072    447.04259    178.63973    38760.619 
   17400     304.7592   -1201.3524    272.60412     435.7125    3.8425342    38760.619 
   17500    298.48199   -1207.1381    263.72675    392.94531    211.49312    38760.619 
   17600    309.10365   -1232.0535    282.63507    434.49324    320.22386    38760.619 
   17700    299.21213   -1224.2426     271.3164    386.69938    581.25269    38760.619 
   17800    307.27878   -1223.8214    275.25312    427.17309    -36.79686    38760.619 
   17900    307.72294   -1169.8307    283.74213    491.64144    444.76736    38760.619 
   18000    292.24156   -1152.1272     275.9278    432.21771    205.74423    38760.619 
   18100    298.41321   -1164.6027    283.70601    455.15193    105.49277    38760.619 
   18200    286.73339   -1156.1276    280.14956    407.77797   -150.90022    38760.619 
   18300    299.32538   -1199.4752    284.48359    425.14105    271.40705    38760.619 
   18400    303.27624   -1166.3151    284.12195    475.62812    296.95534    38760.619 
   18500    300.52848   -1190.3591    274.11347    429.27344    170.05494    38760.619 
   18600    309.25203   -1198.0155     301.2367    487.79718    552.83405    38760.619 
   18700    304.64504   -1201.3967    275.53303    438.08601    331.00629    38760.619 
   18800    317.02812   -1190.4235    285.05783    514.02525    496.39287    38760.619 
   18900    312.43261   -1190.7954     287.0026     495.0232     643.6922    38760.619 
   19000      294.919   -1182.2103    300.05085    438.24499   -212.23916    38760.619 
   19100    306.60931    -1184.297    287.90943    476.35644    86.053548    38760.619 
   19200    294.07032   -1203.6567    261.79502    374.74309    41.576973    38760.619 
   19300    293.76421   -1220.2171    297.18579    392.20294     302.7286    38760.619 
   19400     289.3378   -1215.1624    287.36639    367.62041    442.14495    38760.619 
   19500    299.16874   -1208.0793    289.48588    420.83796    258.56212    38760.619 
   19600    301.67399   -1250.5191    298.73069     398.8593     348.3318    38760.619 
   19700    293.93896   -1255.0251    280.41729    341.40887   -107.61434    38760.619 
   19800    306.97901   -1262.6942    279.20896      390.914   -175.66113    38760.619 
   19900    303.89175   -1226.1557     295.5328     429.9542    -50.61184    38760.619 
   20000    298.90115   -1194.0664    281.19978    425.36661     -226.641    38760.619 
   20100    304.39328   -1184.1851     307.3405    485.97793   -462.92452    38760.619 
   20200    297.13331   -1182.4646    287.75021    435.60392    21.248896    38760.619 
   20300    304.41698   -1187.3293    306.26446    481.86377    137.63798    38760.619 
   20400    292.34947   -1198.0288    291.91062    402.78203   -21.419633    38760.619 
   20500    293.10458    -1226.161    303.84327    389.96331    279.62372    38760.619 
   20600    302.00749   -1252.0308    285.65042    385.76049    73.479387    38760.619 
   20700    311.50051   -1229.0468    294.04753    459.64355    686.84026    38760.619 
   20800     291.7177   -1230.3551    311.13138    386.84799    437.30327    38760.619 
   20900    295.38411   -1230.3963      305.521    397.61155    284.00293    38760.619 
   21000     301.4554    -1200.122    272.58591    422.13299    312.02948    38760.619 
   21100    298.25802   -1204.8404    307.93179    438.44519    284.76564    38760.619 
   21200    309.16039   -1157.4484     308.5485    535.26582    272.58145    38760.619 
   21300    300.53407   -1198.7443    312.93304    459.73284     155.4717    38760.619 
   21400    310.86595   -1212.3931    297.59116    476.99991    357.97106    38760.619 
   21500    289.75829   -1242.5733    291.09097    345.81674   -20.740705    38760.619 
   21600    289.40176   -1209.8672    301.57943    387.41511    169.27187    38760.619 
   21700    295.91482   -1208.3291    308.83038    425.36422    4.9183957    38760.619 
   21800     292.6279   -1205.1799    301.93703    406.90401     692.9834    38760.619 
   21900    311.88953    -1183.625    309.09487    521.85445    184.81004    38760.619 
   22000    298.67594   -1208.1832    311.99438    441.03618     314.7257    38760.619 
   22100    294.64195   -1178.2553    307.34751    448.25631    228.91144    38760.619 
   22200    289.98274   -1165.3662    303.16001    436.09781    272.93043    38760.619 
   22300    294.30418    -1184.775    337.17449    470.05129    11.477842    38760.619 
   22400    294.24451   -1189.4634    313.58741    441.50872    203.15565    38760.619 
   22500    302.39767   -1200.7395    323.53459    476.68289   -366.77742    38760.619 
   22600     305.0779   -1186.3931    292.45235     471.9469   -297.68494    38760.619 
   22700     295.6255   -1153.1076    308.55607    479.01606   -316.48352    38760.619 
   22800    293.06024   -1203.3445    303.65465    412.39267   -287.68361    38760.619 
   22900    296.64782   -1157.5292    314.50415    485.11968   -677.88736    38760.619 
   23000       302.09   -1179.9102    308.58747    481.18761   -141.14379    38760.619 
   23100    292.38667   -1168.7158    304.33005    444.68106   -67.064602    38760.619 
   23200    303.97831   -1224.1914    295.96565    432.73884     111.9211    38760.619 
   23300    294.64795    -1236.219    312.19586    395.16781    319.35002    38760.619 
   23400    307.80706    -1239.667    305.82806    444.26768    115.51481    38760.619 
   23500    303.01806   -1219.9487    287.38303     424.0997    766.72305    38760.619 
   23600    299.80094   -1210.6625    319.84599    451.44525    682.35826    38760.619 
   23700    288.87516   -1202.5605    320.52141    411.30605    202.37449    38760.619 
   23800    299.76381   -1178.7908    310.23571    473.54044    94.838553    38760.619 
   23900    296.79745   -1206.1009    312.80021    435.51395   -77.954658    38760.619 
   24000    306.76925   -1209.9761    298.68341    462.16741    288.08813    38760.619 
   24100    290.69658   -1227.8958    319.96361    393.56775    88.769423    38760.619 
   24200    291.00446   -1227.4276    305.73631    381.18708    171.40169    38760.619 
   24300    298.46347   -1211.5234    323.67064    448.42091    147.81818    38760.619 
   24400    297.66245   -1246.2334    301.09861    387.55264     376.2295    38760.619 
   24500    297.48387   -1224.9743    311.72234    418.63589    638.65484    38760.619 
   24600    297.92853   -1191.5612    306.97886    449.29636    310.50278    38760.619 
   24700    302.10393   -1243.4167    312.68069     421.8367    186.59907    38760.619 
   24800    302.77676   -1228.7411     315.9539    442.79782    567.23285    38760.619 
   24900    299.87259   -1259.2652    295.43446    378.75186    348.26048    38760.619 
   25000    298.82874   -1233.1146    311.10659    415.90109   -419.63882    38760.619 
   25100    300.40032   -1216.7627    307.36386    435.54644   -250.49563    38760.619 
   25200    300.38168   -1228.2228    313.07231    429.71135   -75.525364    38760.619 
   25300    302.76389   -1223.4248    304.82014    436.92279   -38.947168    38760.619 
   25400    306.76941    -1243.642    313.76546    443.58431    27.221517    38760.619 
   25500    301.06799   -1229.8024    301.71983    419.85197   -93.890041    38760.619 
   25600    293.73477   -1212.4173    307.67148    410.35663    115.17918    38760.619 
   25700    303.61005   -1282.1961    312.26276     389.3825    386.19683    38760.619 
   25800    287.59931   -1269.8827    320.12704    337.87728    386.65936    38760.619 
   25900     294.6266   -1220.2067    317.99985    416.88853    289.46849    38760.619 
   26000    294.79154   -1236.0233    304.34328    388.15379   -50.881204    38760.619 
   26100    303.23994   -1250.6509    291.33944    398.34726   -65.405035    38760.619 
   26200    300.27574   -1214.6016    325.52119    455.30717   -529.68786    38760.619 
   26300    297.69057   -1198.7796    307.05598    441.08968   -513.97735    38760.619 
   26400    312.14508   -1218.9865    317.93724    496.47948   -273.62119    38760.619 
   26500    304.97056   -1192.0357    322.86952    496.24092   -106.04652    38760.619 
   26600    299.24552   -1186.5017    334.88592    488.15925   -31.176431    38760.619 
   26700    309.74121   -1193.7649    304.82642    497.82757    148.76827    38760.619 
   26800    305.84853   -1214.5546     324.8465    479.62981    66.488336    38760.619 
   26900    306.45354   -1234.5983    322.95216    460.40048   -371.59152    38760.619 
   27000    292.23519   -1265.5051    303.22097    346.10447    240.16988    38760.619 
   27100    291.93639   -1223.9105    333.58318    416.72348   -249.34872    38760.619 
   27200    288.39037   -1223.2662    315.33804    383.24647    -462.1457    38760.619 
   27300    296.60022   -1263.3268    311.29457    375.89939   -421.07958    38760.619 
   27400    301.30438    -1214.784    345.81092    480.01985   -128.22654    38760.619 
   27500    294.17906   -1202.5222    332.04426    446.61374    311.73489    38760.619 
   27600    296.43823   -1212.3901    335.85535    450.67159    556.09321    38760.619 
   27700    290.24975   -1232.3397    331.66126    398.82099    365.16781    38760.619 
   27800    295.51825   -1215.3879    314.54852    422.24807   -34.476672    38760.619 
   27900    308.60319   -1257.9192    336.42113    460.17294    438.01072    38760.619 
   28000    302.25584   -1237.3086    318.91454    434.85877    71.441225    38760.619 
   28100    296.79075   -1219.2921    333.58745    443.08002    314.34316    38760.619 
   28200    301.42305   -1195.7555     336.4517    490.22048    237.18553    38760.619 
   28300    311.72989   -1241.2141    332.00536    486.46103    78.207134    38760.619 
   28400    293.56938   -1199.4346    328.88764    443.81506   -297.58513    38760.619 
   28500    303.64765   -1252.8162    330.59721    437.26518   -80.146389    38760.619 
   28600    305.21157   -1266.4204    336.61068    436.67643    443.82374    38760.619 
   28700    287.35862   -1270.6978    335.96788    351.82537    331.50804    38760.619 
   28800    305.55707   -1276.5192    338.47473    429.98849    654.37098    38760.619 
   28900     284.6966   -1241.4047    344.76671    377.99898    315.32856    38760.619 
   29000    305.07352    -1239.728    328.38921    454.52932   -32.545503    38760.619 
   29100    293.49044   -1238.3817    315.32451    390.95133    165.43853    38760.619 
   29200    291.86879   -1218.4909    335.56886    423.82608    294.69043    38760.619 
   29300     292.8257   -1244.7395    346.18367    412.47658    309.22914    38760.619 
   29400    303.04349   -1221.8105     348.2858    483.25451    203.54607    38760.619 
   29500    295.51234   -1206.6738    325.88284    442.26993   -24.795547    38760.619 
   29600    305.02468   -1225.3404    355.45142    495.76035    407.04775    38760.619 
   29700    306.01556   -1279.7623    340.28523    430.60867    736.83105    38760.619 
   29800    306.75501   -1229.7355    328.62609    472.28697     841.6568    38760.619 
   29900    295.32939   -1237.2403     339.0773    424.07891    77.078152    38760.619 
   30000    307.96764   -1189.9488    344.42699    533.30373    157.03579    38760.619 
   30100    307.51681   -1198.6582    356.98491    535.13376    195.60995    38760.619 
   30200    303.47082   -1196.1933    350.85501    513.35414    7.1336571    38760.619 
   30300    307.18618   -1235.8591    339.66299     479.1307    244.37957    38760.619 
   30400    301.64919   -1273.6574     340.2659    417.14521    19.039025    38760.619 
   30500    298.60573    -1251.928    345.22365    430.20623    264.30146    38760.619 
   30600    307.28676   -1244.6436    322.79672    453.93022     345.3248    38760.619 
   30700    290.25464   -1220.3986     360.7495    439.87221    417.96411    38760.619 
   30800    294.63514   -1224.7775    374.24185    468.59792    179.46117    38760.619 
   30900    309.22911   -1202.9182    368.92401    550.47922    252.35363    38760.619 
   31000    308.06025   -1213.0705    385.49721    551.66686    142.20558    38760.619 
   31100      304.104   -1217.0461    335.62954     480.1108    288.29994    38760.619 
   31200    307.92252   -1201.7105    356.90589    533.81893   -24.051695    38760.619 
   31300    288.39654    -1219.278    338.53112    410.45534   -40.741437    38760.619 
   31400    303.41936   -1245.6168    358.21545    471.06067    371.94613    38760.619 
   31500     300.8054   -1169.7631     355.5581    532.55391    93.548488    38760.619 
   31600    290.20026   -1202.6554    372.42063    469.04306    -202.8114    38760.619 
   31700    295.14744   -1211.1538     330.9679    441.24129   -242.43991    38760.619 
   31800    297.20744   -1176.6213     349.1678     503.1967    351.47513    38760.619 
   31900    304.82715   -1208.1248    369.53316    526.17336    221.89614    38760.619 
   32000    292.89037    -1258.857     326.8379    379.30283    212.77133    38760.619 
   32100    305.91025   -1236.3903    355.73153    488.95545    424.35493    38760.619 
   32200    298.34622   -1234.5567    350.65792    451.84996    117.11359    38760.619 
   32300    295.98061   -1225.4942     364.9853    464.64859      296.057    38760.619 
   32400    302.43971   -1251.6512    332.18868    434.61346    132.31085    38760.619 
   32500    311.49117   -1283.0041    343.91535    455.51225   -383.27515    38760.619 
   32600    306.45355   -1222.4903    344.25896    493.81534    42.839232    38760.619 
   32700    298.18905   -1273.0441     352.6157    414.61671   -53.269679    38760.619 
   32800    292.45522   -1266.8088     353.8793    396.44423   -512.47001    38760.619 
   32900    310.41117   -1228.3376     357.2749    518.70295   -343.25015    38760.619 
   33000    294.59552   -1253.4387    339.88721    405.40471   -181.44367    38760.619 
   33100    298.95342   -1232.3115    356.14792    462.30365   -76.365956    38760.619 
   33200    294.19343   -1264.8132    350.03314    402.37589    5.4598629    38760.619 
   33300    302.76928   -1294.3149    335.55894    396.79564   -111.06068    38760.619 
   33400    306.06026   -1261.2074    364.24365    473.32208   -33.756405    38760.619 
   33500    292.78326   -1268.2875    370.23324    412.78811    174.97084    38760.619 
   33600    296.75967   -1209.0825    371.65346    491.21645    -41.56549    38760.619 
   33700    288.93235   -1290.6623    364.73913    367.67798   -283.21191    38760.619 
   33800     306.9909   -1218.0067    369.58009    526.02587    231.93739    38760.619 
   33900    300.48828   -1241.0384    352.39382    456.69455    188.49541    38760.619 
   34000    293.23931   -1274.7445      360.651    398.79071    275.55819    38760.619 
   34100    297.77926   -1281.6175    353.08363    404.67647    121.63585    38760.619 
   34200     301.6885   -1303.9447       358.45    405.21798   -187.49834    38760.619 
   34300    289.70219   -1273.8471    359.71938    382.92018   -299.45599    38760.619 
   34400    299.57285   -1266.6902    352.79408    427.34444    418.21842    38760.619 
   34500    292.84331   -1338.3854    387.97506    360.70087    756.72553    38760.619 
   34600    297.67543   -1356.2032    357.90335    334.44569    944.78132    38760.619 
   34700    293.78167   -1352.1835    348.67264    311.80163    1278.5171    38760.619 
   34800    288.53089   -1332.3167    382.04715    341.53426    905.49805    38760.619 
   34900    295.66874   -1291.6649    358.75373    390.85002    140.80659    38760.619 
   35000    300.69223   -1271.3327    354.89796    429.81751    725.36738    38760.619 
   35100    296.69115   -1262.2428    363.81967    429.91555    487.53718    38760.619 
   35200    305.47221   -1278.0096    355.18891    444.83233    375.83518    38760.619 
   35300    300.04777   -1244.7174    371.74557    470.39511    570.56633    38760.619 
   35400    290.89976   -1293.5869    370.92564    379.74833    265.87613    38760.619 
   35500    295.60258   -1303.4453    368.40586    388.42556    378.33422    38760.619 
   35600    295.22533   -1288.6072    371.58402    404.75277   -77.987083    38760.619 
   35700    283.69582   -1303.0601    375.46086    342.55708    6.2559451    38760.619 
   35800    295.67982   -1216.8782    358.50221    465.43477    363.76377    38760.619 
   35900    301.70432   -1254.9476      365.144    460.97998   -71.479154    38760.619 
   36000    308.58244   -1234.0764    367.19487    514.69662   -203.34275    38760.619 
   36100    298.16068   -1252.7867    376.83773    458.96906    216.80981    38760.619 
   36200     297.6313   -1271.0185     389.2341    450.76353      371.835    38760.619 
   36300    299.95916   -1241.0063     368.0674    470.03125    320.40051    38760.619 
   36400    302.96047   -1270.5534    356.51172    442.36589    319.68355    38760.619 
   36500     294.2295   -1282.5622    363.82959    398.58484    119.60161    38760.619 
   36600    299.58506     -1260.28    376.19513    457.21036    387.91003    38760.619 
   36700    309.32932   -1264.4751    369.00601    489.45294    52.128129    38760.619 
   36800    296.44008   -1255.9401    375.75413    447.02867    150.16825    38760.619 
   36900    301.22942   -1259.7122    343.45371    432.39887    166.71495    38760.619 
   37000    288.53699   -1259.5987    361.52289    393.75531    659.75706    38760.619 
   37100    301.47669   -1302.9111    359.94364    406.79693    477.27624    38760.619 
   37200    309.78432    -1275.613    349.35668     460.7028    601.55695    38760.619 
   37300    303.99278   -1276.0921    358.55392    443.49118    187.83192    38760.619 
   37400    296.05284   -1310.5728    352.96062    367.86864    684.52588    38760.619 
   37500    301.84431   -1356.8325    366.52608    361.10386    163.74379    38760.619 
   37600    299.10843    -1306.403    380.65833     413.4166    449.63202    38760.619 
   37700    296.25253   -1317.7983    373.32216    381.89881     429.1593    38760.619 
   37800    300.79811   -1320.0525    376.18416    402.85791    92.750931    38760.619 
   37900     306.2773   -1317.6593    375.08043     428.6787   -109.19338    38760.619 
   38000    293.70349   -1273.6879    359.11665    400.39115     41.96388    38760.619 
   38100    292.64534   -1268.0169    355.95926    398.16731    64.566401    38760.619 
   38200    299.55255   -1254.6565    365.16808    451.66125    406.30266    38760.619 
   38300    302.01697   -1281.8397    347.24113     417.5848    227.25714    38760.619 
   38400    299.25264   -1271.4202     355.4803    423.86701    123.99986    38760.619 
   38500    299.28913   -1279.5795    374.87114    435.26201    142.03275    38760.619 
   38600    304.04491   -1322.2227    371.50863    410.54873    779.46749    38760.619 
   38700    296.66236   -1338.5286    355.76515    345.44634    352.28243    38760.619 
   38800    308.71444    -1292.607     355.4391    445.00121    740.87494    38760.619 
   38900    290.68687   -1291.4546    373.03283    383.03472    523.66338    38760.619 
   39000    305.95326   -1287.5215    376.53211    458.81745   -14.902831    38760.619 
   39100    308.07158   -1254.3086    371.63506    496.61734   -166.28716    38760.619 
   39200     301.4237   -1343.6648    371.13894    377.00132   -273.79656    38760.619 
   39300    288.47843   -1277.1615    381.30618    395.71361    50.950045    38760.619 
   39400    303.64604   -1278.1334    393.37369    474.71729    99.834765    38760.619 
   39500    308.57275   -1283.1223    379.55859    477.97103   -172.23515    38760.619 
   39600    301.56561   -1265.9222    356.38496    440.62534   -415.10084    38760.619 
   39700    298.67496   -1315.3266    382.27092    404.16484   -29.337446    38760.619 
   39800    298.99977   -1278.8077    373.72388    433.59096   -58.022453    38760.619 
   39900    292.21689    -1262.773    360.54798     406.0817   -181.67156    38760.619 
   40000    296.12059   -1262.4457    357.54062    420.87911    348.44951    38760.619 
   40100    293.52523   -1312.6987    376.09181    377.55739     454.8997    38760.619 
   40200    307.16268   -1293.9623    370.82715    452.08641    235.72267    38760.619 
   40300    287.54372   -1292.3007    385.83662    380.91995   -174.69057    38760.619 
   40400     288.2673   -1287.4647    382.47017    385.62913   -241.29996    38760.619 
   40500    293.99601   -1305.8102    390.19219    400.65405   -305.72399    38760.619 
   40600    307.78414   -1241.8427    377.08937     513.2506    62.084311    38760.619 
   40700    307.55721   -1265.9296     394.2551    505.31351    310.92055    38760.619 
   40800    305.08615   -1260.5247    383.94784    489.34769    668.63268    38760.619 
   40900     296.1019   -1264.9202    402.10088    462.88118     944.7777    38760.619 
   41000    299.14269   -1301.3432    373.20668     411.1782    994.41335    38760.619 
   41100    309.67739   -1296.2833    394.62945    484.82653    533.60728    38760.619 
   41200    305.06506   -1289.7712    386.63556     462.6945      267.544    38760.619 
   41300    302.56535   -1272.6039     371.8462    453.88086    80.660869    38760.619 
   41400    295.78799   -1295.7139    372.72499    401.30615   -55.277889    38760.619 
   41500    292.16618   -1300.5315    368.55503    376.10317   -331.81887    38760.619 
   41600    293.88655   -1330.9765    367.08228    351.88783    582.45142    38760.619 
   41700    297.52297   -1366.9248    365.75803    330.89608    121.36392    38760.619 
   41800    307.04382   -1332.7998    360.28637    402.17606   -16.758219    38760.619 
   41900    298.65986   -1326.8371    365.03915    375.35502    100.55279    38760.619 
   42000    297.82241   -1348.8639    366.14833    350.68801    627.98548    38760.619 
   42100     294.1555   -1330.6152    368.22142     354.5924    670.41946    38760.619 
   42200    302.00675   -1308.5318    362.36329    405.96907    368.76469    38760.619 
   42300    298.11522   -1297.0875    390.71243    428.33947    504.54071    38760.619 
   42400    311.09387   -1352.3682    386.29626    426.75025    641.29797    38760.619 
   42500    287.52956   -1328.5384    372.41599    331.19822   -6.3911655    38760.619 
   42600    297.09974   -1293.5798    384.51541    421.10366    141.54834    38760.619 
   42700    300.68707   -1298.6863    362.57199     410.1149    52.630149    38760.619 
   42800    296.11405   -1386.1213    376.38545    316.01901   -310.30231    38760.619 
   42900    296.25627   -1300.7329     377.4002    403.05897   0.97361619    38760.619 
   43000    292.14226   -1247.7022    370.88769    431.15796   -659.61435    38760.619 
   43100     295.7431   -1307.4635    377.03484    393.66546   -455.92657    38760.619 
   43200    302.20609   -1310.6661    359.71092    402.07488    -740.3768    38760.619 
   43300    291.23298   -1312.5889    365.14114    356.45371   -380.26567    38760.619 
   43400    298.53319   -1336.1173    366.38561    366.85414   -287.98009    38760.619 
   43500    289.95848   -1372.5895    366.32085    291.92672   -33.632987    38760.619 
   43600    295.77215    -1384.617    384.86565    324.47286   -4.7275792    38760.619 
   43700    303.27854    -1380.736    357.17535    334.27097    29.963233    38760.619 
   43800    299.08118   -1392.5956     360.9739    307.41758    129.55627    38760.619 
   43900     298.2587   -1349.6414    379.39886     365.1144    373.45086    38760.619 
   44000    287.97723   -1371.1414    386.92346    305.10705   -111.68059    38760.619 
   44100     288.2935    -1397.545    381.86717    275.06309   -57.920912    38760.619 
   44200    295.65448   -1380.6151    383.67229    326.75453    461.77376    38760.619 
   44300    296.14683   -1362.6886    384.81816    348.03123    106.68941    38760.619 
   44400    307.05131   -1332.6441    365.69387    407.77274   -53.854638    38760.619 
   44500    300.81858   -1319.6468     387.5504    414.72149    130.63937    38760.619 
   44600    304.42643   -1307.7786    375.35016    430.54248    247.56301    38760.619 
   44700    292.90532   -1301.4681    394.47108    404.39185    227.03984    38760.619 
   44800    304.87212   -1314.2594    373.85017    424.55709    162.86859    38760.619 
   44900    292.93193   -1321.7899    372.06954    361.78767    335.64143    38760.619 
   45000    303.86219   -1306.6016    388.03198    441.87511    68.038589    38760.619 
   45100    302.74318   -1317.6213    369.97696    407.79035   -131.56437    38760.619 
   45200     306.7217   -1325.8177    389.47635     436.9059    4.5949806    38760.619 
   45300     293.7895   -1356.8967    376.10598    334.55683    31.412253    38760.619 
   45400    296.20573    -1302.281    380.23627    404.12072    569.38304    38760.619 
   45500    302.35616   -1314.6043    391.32418    430.42185    494.00778    38760.619 
   45600    291.71488   -1273.6116    385.56852    418.01596    9.6490834    38760.619 
   45700    297.43544   -1325.3855    383.42477    389.71024    537.18474    38760.619 
   45800    297.32092   -1338.6377    398.19998    390.72061   -118.14567    38760.619 
   45900    315.65873   -1361.2127    400.12267    452.16987    431.29932    38760.619 
   46000    306.85477    -1359.493    395.88379     410.2338    54.263845    38760.619 
   46100    311.75296   -1363.1352      409.013     441.6509    179.01035    38760.619 
   46200    303.25842   -1320.6572    397.64298    434.72727    16.736703    38760.619 
   46300    310.96545   -1345.9493    390.25733    436.55531   -26.455067    38760.619 
   46400    303.53895   -1332.8746    405.98768    432.11058    860.65137    38760.619 
   46500    296.93896   -1310.2989    364.97508    384.12435    632.71335    38760.619 
   46600    292.82917   -1321.1146    393.98594    383.91929    1085.2148    38760.619 
   46700     304.9779   -1289.8923    391.24008    466.78775     1217.762    38760.619 
   46800     294.9447   -1267.9171    412.24337    464.84581    344.53908    38760.619 
   46900    307.77446   -1291.5903    402.82689    489.19726    579.50812    38760.619 
   47000    297.03314    -1293.319    389.83257    426.38338    311.70805    38760.619 
   47100    306.63017   -1268.4874    399.60096    503.95101    632.78046    38760.619 
   47200     309.6486   -1310.4995    416.63729    492.48929     167.6668    38760.619 
   47300    302.83817   -1313.7723    388.64898    430.73665    448.14938    38760.619 
   47400    302.12472   -1292.6057    399.74716    459.80725    292.80512    38760.619 
   47500    301.17634    -1300.125    389.45737    437.75209    237.44191    38760.619 
   47600    290.29926   -1313.7499    398.00474    383.97595    187.08245    38760.619 
   47700    299.61599   -1295.0395    409.50582    455.90006    178.19825    38760.619 
   47800    306.36172   -1363.7394    387.82813    395.72429    25.190081    38760.619 
   47900    290.88598    -1312.585    412.81232    402.57527    297.71454    38760.619 
   48000    293.95325   -1381.2594    402.48453    337.30571    302.16946    38760.619 
   48100    301.13023   -1332.4092    396.77518    412.57925    418.74005    38760.619 
   48200    306.83217    -1337.233    390.78307    427.29195    522.82663    38760.619 
   48300    298.54499    -1392.196    376.38818    320.83083    838.03879    38760.619 
   48400    304.60815   -1386.9496    388.02597    364.86085   -129.34419    38760.619 
   48500     299.7729   -1367.4056    404.80179    379.53244    107.41803    38760.619 
   48600    306.78247   -1389.4592    395.68418    379.74433    26.627032    38760.619 
   48700    309.46631   -1414.7405    397.57473    368.36962    128.51171    38760.619 
   48800    294.34942   -1372.2585     386.5613    332.15713   -39.351492    38760.619 
   48900    301.76791   -1391.8179    399.08442    358.33479    73.895514    38760.619 
   49000    302.39841   -1340.3272    402.28155     415.8454    247.22015    38760.619 
   49100    287.00245   -1366.2348     420.4512    339.17708    518.70288    38760.619 
   49200    310.02623   -1379.6028    390.12195     398.5614    139.73178    38760.619 
   49300    301.05516   -1380.9823    393.60705    360.50189    71.679001    38760.619 
   49400    308.13542   -1366.0358    374.09962    387.64057    587.98945    38760.619 
   49500    307.42966   -1362.8659    377.55814     391.1092    167.52621    38760.619 
   49600    295.57729   -1369.1479    388.91396    343.11783   -158.77496    38760.619 
   49700    291.97734   -1339.4051     386.7597    354.58876    307.75242    38760.619 
   49800    292.06824   -1338.3587    399.00901    368.29141    92.972033    38760.619 
   49900    291.18876   -1403.4064    387.64623    287.94333    215.79658    38760.619 
   50000    292.60965    -1354.825    380.82509     336.0652    690.55173    38760.619 
   50100    301.70286   -1344.2868    395.57273    402.06292    30.219011    38760.619 
   50200    294.22577   -1353.1753    396.26085    360.38638   -145.08521    38760.619 
   50300    297.72784   -1345.9049    389.17276    376.24796    8.0926555    38760.619 
   50400    309.14731    -1331.068    396.06284    449.10196    84.510752    38760.619 
   50500    304.53219   -1332.5109    412.95544    443.88897    -183.6626    38760.619 
   50600    296.51267   -1308.9989     412.6622     431.2029     315.5964    38760.619 
   50700    302.40603   -1301.3389    404.29103    456.87738    94.356918    38760.619 
   50800    298.58649   -1342.8193    424.31579    418.32096   -170.58302    38760.619 
   50900    301.08116   -1297.6596    417.60985    467.94374    -21.35401    38760.619 
   51000    296.37736   -1309.4807    409.19316    426.64624   -52.717881    38760.619 
   51100    297.89383   -1323.7533     383.4725     393.4425   -193.89165    38760.619 
   51200    301.56689   -1321.3979    403.55602    432.32643    293.23315    38760.619 
   51300    299.49042   -1336.4565    400.25841    404.67342    300.63672    38760.619 
   51400    305.23155   -1347.5935    418.01277    436.99481    150.25492    38760.619 
   51500    302.81417   -1314.2225    400.27091    441.80094    263.73204    38760.619 
   51600    296.85104   -1309.2595    395.40086    415.19589    225.46463    38760.619 
   51700    308.84192   -1311.0931    401.67285    473.31962    293.48766    38760.619 
   51800    293.00306   -1358.3194    392.20593    345.71299    714.88093    38760.619 
   51900    287.86201   -1339.2719    400.06105    349.59823    259.91603    38760.619 
   52000     301.6822   -1368.0118    401.26433    383.93709    150.93619    38760.619 
   52100    303.43521   -1361.3335    386.88163    384.08123    566.92392    38760.619 
   52200    291.60762   -1347.2824    386.06565    344.36209    263.91641    38760.619 
   52300    302.37226   -1331.8235    395.20959    417.16008    223.81085    38760.619 
   52400    305.60767   -1334.0924    411.74322    445.91033    185.50032    38760.619 
   52500    302.33464   -1330.3679    404.91827    428.15597    303.93949    38760.619 
   52600    300.25686   -1343.5483    413.64723    414.40193    718.02864    38760.619 
   52700    304.04416    -1320.356    401.96442     442.8678    324.38758    38760.619 
   52800    302.40609   -1369.8947    386.48048    370.51131   -57.835179    38760.619 
   52900    294.91653    -1373.894    376.08418    322.58357   -622.87916    38760.619 
   53000    289.45926   -1345.3651    396.91067    347.50583   -746.30519    38760.619 
   53100    296.95073   -1355.3462    394.43737    368.59206   -615.65237    38760.619 
   53200    310.67304   -1343.3398    402.90322    450.50156   -435.95933    38760.619 
   53300    282.03298   -1334.2079    421.90405    350.40761   -754.09408    38760.619 
   53400    303.62811   -1397.6682    405.97348      367.702    147.50306    38760.619 
   53500     302.2687   -1397.4333    386.66535    342.54239     148.1797    38760.619 
   53600    308.60003   -1366.2001    423.59186     439.0486    276.99804    38760.619 
   53700    309.17434    -1397.344    428.05985    414.94399    700.00607    38760.619 
   53800    306.72903   -1361.3798    414.97352    426.87384    256.73774    38760.619 
   53900     311.0578   -1364.8623    408.43846    436.23691    191.10833    38760.619 
   54000    302.23243    -1391.039    391.11512    353.22418    458.45455    38760.619 
   54100    296.52434   -1329.9691    408.80324    406.42596    546.23694    38760.619 
   54200    301.25263   -1407.4643    382.13996    323.43694    146.74054    38760.619 
   54300    302.99641   -1372.2979    419.84941    404.11997     180.2372    38760.619 
   54400    297.32563   -1364.5482    417.81653     384.4477    71.815758    38760.619 
   54500    301.90487   -1361.6425    391.07172    381.11066    388.71596    38760.619 
   54600    292.03253   -1359.7701     412.5186    360.22977    267.27646    38760.619 
   54700    290.05923   -1341.5565    402.72212    359.81209    77.046004    38760.619 
   54800    303.30372   -1369.6474     413.9425     402.2395   -431.22828    38760.619 
   54900    301.52843   -1365.9534    393.18195    377.22462   -324.24449    38760.619 
   55000    307.82153   -1381.2687    434.23493    431.13764    28.829782    38760.619 
   55100    293.32164   -1413.6222    387.73459    287.36515   -24.015237    38760.619 
   55200    305.62953   -1412.3735    386.30988    342.29377    90.862372    38760.619 
   55300    297.97578   -1439.5111    395.71246    290.29158    437.55368    38760.619 
   55400    301.95023   -1374.1811    404.07978    381.78323    43.910549    38760.619 
   55500    300.14397   -1341.4239     411.0128     413.3865    342.04423    38760.619 
   55600    296.29155   -1396.9238    394.64497    324.27082    -259.6592    38760.619 
   55700    305.46465   -1392.6338     416.7373     391.7227    102.69319    38760.619 
   55800     294.2528   -1368.4405    423.40526    372.38655   -667.98646    38760.619 
   55900    296.01641   -1355.7776    401.88103    371.42123    -424.4867    38760.619 
   56000    302.40759   -1313.9299    422.80439    462.80673    -364.6301    38760.619 
   56100    307.34745   -1315.5148     423.6734    484.20742   -448.53191    38760.619 
   56200    294.26231   -1289.6584     431.5365    459.34247   -51.941445    38760.619 
   56300    302.56241   -1311.1292    420.40516     463.9013   -55.246012    38760.619 
   56400    295.60747   -1314.0848    405.81526    415.21738    445.55053    38760.619 
   56500    305.99015   -1301.9834    438.73208    506.72068    158.36474    38760.619 
   56600    308.98453   -1322.2585     404.3084    465.42827   -180.36209    38760.619 
   56700    303.92119   -1330.7325    410.83614    440.81255   -126.92526    38760.619 
   56800    290.26584   -1346.7256    419.41612    372.26201   -178.29986    38760.619 
   56900    307.49598    -1341.031    428.28627     463.9691    87.046234    38760.619 
   57000    295.72243   -1320.5484    460.02828    463.48146   -474.59001    38760.619 
   57100    289.97042   -1325.2656    420.32699    393.31017   -508.38115    38760.619 
   57200    293.14495   -1390.8009    413.78564    335.44649   -270.63997    38760.619 
   57300    300.48905   -1395.1486    403.83955    354.03353   -84.574328    38760.619 
   57400    306.06524   -1376.1746    436.38873    430.52225    2.0580318    38760.619 
   57500    301.97169   -1372.7824    428.19907    407.39732   -73.770195    38760.619 
   57600    302.05896   -1408.8353    414.73685    358.27289    -442.2213    38760.619 
   57700    303.33909    -1415.956    417.90481    360.05155   -608.42824    38760.619 
   57800    301.12361   -1343.4841    440.92675    445.62627    -186.2482    38760.619 
   57900    295.37483   -1367.7743    417.06335    371.73429    304.92137    38760.619 
   58000    303.58557   -1378.0014    408.77201    389.97685    128.49261    38760.619 
   58100    294.69899   -1391.7088    435.12911    362.83973   -711.17707    38760.619 
   58200    292.46673   -1392.6631    423.43987    340.20201   -196.28886    38760.619 
   58300    307.70591   -1364.8038    428.51804    441.36795   -416.05385    38760.619 
   58400    301.51263   -1403.7959    411.10952    357.23891   -335.80585    38760.619 
   58500    294.91713   -1387.7893    429.63315    362.23998   -374.80085    38760.619 
   58600    310.14539   -1373.0104    420.56634    436.13165   -60.663972    38760.619 
   58700    300.95064   -1401.6331    423.65522    369.43136   -302.19796    38760.619 
   58800    299.20678   -1434.5642    423.47227    328.50971   -70.907315    38760.619 
   58900    299.19055   -1422.0499    428.04006    345.51906   -177.11105    38760.619 
   59000    305.83095   -1399.6116    431.33381     400.9814   -208.32348    38760.619 
   59100    306.99509   -1393.2495    409.14086    390.36263   -229.21176    38760.619 
   59200    300.95913   -1364.0879    400.78174    384.14107   -890.16732    38760.619 
   59300    295.92687   -1386.7505    401.98825    340.15468   -1164.7316    38760.619 
   59400    291.60022   -1364.6982     420.0227    360.87016   -1066.3848    38760.619 
   59500    293.70249   -1386.9126    426.02925    354.07462   -572.21889    38760.619 
   59600    312.14791   -1359.1854    418.63254    456.98852   -315.96274    38760.619 
   59700    293.91103   -1377.3985    421.24264    359.73578   -460.31332    38760.619 
   59800    307.58659   -1366.7774    422.43957    432.78167   -213.95132    38760.619 
   59900    305.27207   -1386.6232    414.69229    394.82605   -124.73761    38760.619 
   60000    304.22485   -1346.5545    432.34112    447.85497   -457.89448    38760.619 
   60100    297.08256   -1394.1169    434.43624    370.41046    272.71564    38760.619 
   60200    293.12171   -1395.5766    400.12285     316.9039    171.74102    38760.619 
   60300     296.5091   -1405.2059    424.01844    346.33614    221.86763    38760.619 
   60400    289.48111   -1353.3162     434.9176    377.65952   -166.60647    38760.619 
   60500    312.49151   -1334.4144    418.68057    483.34592    337.90113    38760.619 
   60600    294.87978   -1349.8707    446.66102    417.01924    214.24423    38760.619 
   60700    295.58783   -1335.0985    449.87472     438.1752    194.73749    38760.619 
   60800    306.03261   -1332.6989    430.04324    467.50641    98.072923    38760.619 
   60900    299.01565   -1333.3853    466.23256    471.59313    60.940764    38760.619 
   61000    289.60365   -1378.1622    409.44659    327.89109   -75.647113    38760.619 
   61100    294.79965   -1370.2238    429.28544    378.93174   -311.66732    38760.619 
   61200    306.18044   -1364.9687    424.30371    430.15895    -538.9835    38760.619 
   61300    297.70569   -1351.8212    432.84835    413.90812   -144.49284    38760.619 
   61400    290.69743   -1363.4885     411.4515    349.46672   -216.90571    38760.619 
   61500     289.8687   -1348.8137    451.28623    400.26589    58.743187    38760.619 
   61600    295.20413   -1357.6811    434.16426     398.1642    346.71393    38760.619 
   61700    311.92878   -1347.8459    423.90079    472.61511   -45.663377    38760.619 
   61800    297.95971   -1378.7731    428.61578    383.86097    129.99285    38760.619 
   61900    298.39597   -1367.9686    445.31924     413.3221    274.00868    38760.619 
   62000    306.47118   -1395.3293    427.98651    404.78288    253.95953    38760.619 
   62100    298.92303   -1390.0897     441.1676    389.40915    222.17538    38760.619 
   62200    314.06316    -1384.983    417.10834    438.24158   -121.59721    38760.619 
   62300    304.19299   -1384.4905    419.01513     396.4504   -713.66289    38760.619 
   62400    301.62919   -1417.3314    426.26051    359.37633   -303.98659    38760.619 
   62500    303.62288   -1409.8382    405.15981    354.69494    -398.3863    38760.619 
   62600    306.28166    -1393.302    413.60618    391.58127   -163.04697    38760.619 
   62700    301.93387   -1377.4699     416.0329    390.37425    186.44884    38760.619 
   62800      305.225   -1391.6461    397.30072    372.20085   -752.16709    38760.619 
   62900    304.82269    -1399.217    463.15839    428.68644   -623.36457    38760.619 
   63000    296.79131   -1395.7948    400.81771    333.81004   -791.24021    38760.619 
   63100    302.79536   -1371.0635    446.62997    431.23481   -568.10266    38760.619 
   63200    301.94982   -1387.4108    439.36996     403.8419     92.79367    38760.619 
   63300     288.2311   -1394.0214    437.96824    334.40843   -328.62243    38760.619 
   63400    293.18308   -1382.0595    411.34945    341.92246   -190.66757    38760.619 
   63500     296.3056   -1392.3122    406.28273    340.58307   -137.36146    38760.619 
   63600     301.2163   -1406.4011    445.09601    387.29348   -124.64929    38760.619 
   63700    290.56611   -1435.0674    418.05093    283.89936   -83.060923    38760.619 
   63800    301.94995   -1419.9229    411.64688    343.60723   -77.747504    38760.619 
   63900    297.26521   -1390.1212     430.2269    371.01457     27.82026    38760.619 
   64000    309.46042   -1414.9765    406.43589    376.96842    446.64984    38760.619 
   64100    296.96375   -1421.9038    436.10385     343.7592     1070.374    38760.619 
   64200    302.95186   -1418.8988    415.33729    352.80755    902.99715    38760.619 
   64300    312.82079   -1408.2846    429.84184    422.11123    83.625899    38760.619 
   64400    297.99192   -1393.0504    434.35999    375.47209    -135.6749    38760.619 
   64500    299.93542   -1431.5327     412.6555     323.9867   -194.54316    38760.619 
   64600    294.31674   -1405.4888    412.50284    324.72207   -208.70511    38760.619 
   64700     304.6454   -1349.4102     434.0582    448.59922   -420.37565    38760.619 
   64800    301.52088   -1398.6081    434.99114     386.3453   -196.64379    38760.619 
   64900    306.26622    -1418.076    413.16607    366.29803   -364.87878    38760.619 
   65000    307.35875   -1423.7787    428.45248    380.77321   -382.04468    38760.619 
   65100    302.25861   -1422.9925    440.40611    370.67883   -265.92091    38760.619 
   65200    297.51212   -1398.2794    431.22879    364.96375    223.37779    38760.619 
   65300    294.85903   -1360.5841    443.74681    403.29868    565.82485    38760.619 
   65400     284.9941   -1431.8109    427.50274    271.66072     399.8425    38760.619 
   65500    294.92862    -1391.672    438.06914    366.84464   -584.42641    38760.619 
   65600    294.38326   -1424.2569    414.93535    308.68433   -90.823267    38760.619 
   65700    292.36785   -1440.6589    416.74452    285.06819   -196.47033    38760.619 
   65800    303.60032    -1447.965    445.62536    356.93266    299.96868    38760.619 
   65900    294.37069   -1432.8633    423.39323    308.47956    164.11441    38760.619 
   66000    305.42088   -1444.7419     431.5154    354.19678    125.43984    38760.619 
   66100     288.1789    -1428.737    429.63628    291.12718    49.321731    38760.619 
   66200    293.39627   -1448.1283    414.61504    280.07365      248.046    38760.619 
   66300    301.97543   -1417.4447    420.86655     355.4192    228.57723    38760.619 
   66400    302.81577   -1424.9418    423.58436    354.40222     319.8569    38760.619 
   66500    291.94514    -1408.417    416.93738    315.61038    760.21856    38760.619 
   66600    299.90615   -1424.7973    430.75661     348.6921    677.51391    38760.619 
   66700    305.87799    -1422.458    425.35537    372.36722    287.00706    38760.619 
   66800    294.81256   -1439.9216    422.80413    302.81043    149.98018    38760.619 
   66900     316.0137    -1423.751    414.67097    405.76917    302.36281    38760.619 
   67000    294.56243   -1424.3099    408.54141    303.03955   -36.662698    38760.619 
   67100    298.75187    -1381.964    424.81287    380.41373    25.308388    38760.619 
   67200    302.38181   -1394.5081    438.15489     397.4636   -58.589321    38760.619 
   67300    293.02293   -1427.7436    411.39144    295.56324    398.42011    38760.619 
   67400    307.95999   -1401.7945    458.22682    435.22365    378.42176    38760.619 
   67500    293.60151   -1392.9998      430.138      351.644   -236.58996    38760.619 
   67600    301.91882    -1366.004    434.07943    419.81933   -275.11019    38760.619 
   67700    302.91727   -1343.7914    452.74892    465.17168   -200.18437    38760.619 
   67800    291.90151   -1384.6534    413.43046    335.67169   -321.10267    38760.619 
   67900    296.66754    -1383.151     437.5702    382.65214   -198.25701    38760.619 
   68000     299.4033   -1362.7417    421.45367    399.19343    27.094884    38760.619 
   68100     294.3167   -1409.1944    438.28732    346.80079    135.54966    38760.619 
   68200    298.35669   -1414.1681    430.80822    352.43573    274.74836    38760.619 
   68300    295.26894   -1373.8253    449.38648    397.53238    28.190146    38760.619 
   68400    311.71178   -1412.3867     428.0453    411.24732    1277.7522    38760.619 
   68500    299.68886   -1408.9245    437.88606     370.7216     890.8935    38760.619 
   68600    310.38801   -1431.0143    421.35804    380.00572    1261.3391    38760.619 
   68700    303.63311   -1416.4274    448.16695    391.15862    772.97867    38760.619 
   68800     294.4188   -1424.7765    417.98328    311.37174    355.90102    38760.619 
   68900    306.06039   -1398.8136    439.94397    411.41679    207.90636    38760.619 
   69000    302.22627    -1399.889    409.82424    363.05568    511.24368    38760.619 
   69100    304.88847   -1396.6226    407.66229    376.07921   -18.838664    38760.619 
   69200     308.4488    -1403.628    438.20437    415.55617    449.71031    38760.619 
   69300    303.01299   -1369.8798    433.17798    419.94089    751.91382    38760.619 
   69400    285.48487   -1373.7049    439.46357    343.92484    151.70128    38760.619 
   69500    300.11536   -1379.6808    432.04268    396.03135    245.71202    38760.619 
   69600    301.12371   -1354.1313    426.02993     420.0827    372.72632    38760.619 
   69700    323.13045   -1380.4756    428.72152    494.95808    297.74957    38760.619 
   69800    298.02261   -1423.9406    426.40602    336.76525    187.10395    38760.619 
   69900    307.52921   -1392.8355    426.91865    410.94578    260.39548    38760.619 
   70000    295.39567   -1432.9675    416.65297    306.22409     436.2164    38760.619 
   70100    302.03539   -1437.3572    410.70484     325.6134   -2.1840226    38760.619 
   70200    297.62572   -1431.1228    427.57617    328.97627    59.059014    38760.619 
   70300    301.72895   -1438.1165    431.00621    343.78352      336.009    38760.619 
   70400    291.39665   -1428.3977    421.81929    298.05588    440.99491    38760.619 
   70500    296.07132   -1410.7058    416.52672    331.38451   -51.838799    38760.619 
   70600    305.94861   -1444.9592    427.57288    352.39973   -300.59146    38760.619 
   70700    292.90587   -1448.6575       418.29    281.02387   -401.01205    38760.619 
   70800    299.35088   -1468.9638     418.3124    289.59543      54.3162    38760.619 
   70900    303.88669    -1414.889    410.51884    356.18422   -429.35102    38760.619 
   71000    306.91268    -1426.493    441.37999    388.98925   -475.50607    38760.619 
   71100    297.89014   -1392.7361    439.84032    380.81098   -774.49392    38760.619 
   71200    289.10182    -1383.108    438.16587    349.41781    -882.8232    38760.619 
   71300     305.1234   -1408.8186     431.4158    388.68856   -713.56431    38760.619 
   71400    301.27228   -1422.1389    442.26852    368.97885   -764.40512    38760.619 
   71500    295.98582    -1441.595    423.16909    306.75486   -431.26625    38760.619 
   71600    298.06647   -1454.4316     408.7684      288.833   -215.64871    38760.619 
   71700    313.61317   -1419.3426    417.65436    402.41332    -272.2638    38760.619 
   71800    318.00967   -1445.8508     419.9337    397.86837   -287.98923    38760.619 
   71900    305.94557   -1482.8499    464.95077    351.87331    116.80301    38760.619 
   72000    301.64128   -1451.9585    437.11917    335.66193    540.53684    38760.619 
   72100    299.68923   -1461.5509     426.3045    306.51526    760.54192    38760.619 
   72200    289.82881   -1470.1744    410.35398    237.79434    1160.4967    38760.619 
   72300    300.14869   -1486.3257    434.93688    292.42989     1047.127    38760.619 
   72400    289.71968   -1493.9161    435.54822    238.75827     667.9864    38760.619 
   72500    306.43048   -1459.9945    450.33299    362.28194    164.14506    38760.619 
   72600    314.30773   -1498.4154    432.55582    341.35164    814.38958    38760.619 
   72700    298.60541   -1488.2762     426.0591    274.69208    60.517922    38760.619 
   72800     293.8479   -1484.5319    411.41674    242.49383    553.12337    38760.619 
   72900    303.71984   -1445.7029    397.49057    311.59507     46.14865    38760.619 
   73000    298.64811   -1471.9421    420.08922    285.24752    204.60954    38760.619 
   73100     309.9955   -1475.2073    396.53794    309.23524    136.34474    38760.619 
   73200    303.06685   -1503.2905    384.28938     237.8827     197.7273    38760.619 
   73300    305.53833   -1448.7543    444.64215    363.83689    240.67611    38760.619 
   73400    295.43829   -1446.4505     424.6318    300.91077    296.53333    38760.619 
   73500    306.17791   -1446.2852    439.07121    363.59866    270.35156    38760.619 
   73600    303.71143   -1400.8852    442.31271    401.19723    440.89323    38760.619 
   73700    296.61651   -1407.7347    436.50073    356.77053   -49.063967    38760.619 
   73800    294.95615    -1416.111    443.98824    348.44803    420.21825    38760.619 
   73900    305.51535   -1382.9462    416.33327    401.23324    -333.3703    38760.619 
   74000     294.4593   -1367.6953    438.74321    389.39427   -851.34234    38760.619 
   74100    303.92813   -1383.0623    436.86513     414.5428   -458.02803    38760.619 
   74200     293.8315   -1451.0081    422.93872    287.46611    -601.4878    38760.619 
   74300    290.11729   -1455.1747    422.48871    266.22039   -284.26281    38760.619 
   74400    300.11144     -1421.94    430.28401    351.99589   -207.51634    38760.619 
   74500    299.59092   -1420.5912    453.65649    374.38682    208.89878    38760.619 
   74600    290.33408   -1410.8558    432.54309    321.56421    16.209924    38760.619 
   74700    308.58726   -1415.4397    439.89961    406.05964    2.9354145    38760.619 
   74800    292.44204   -1413.4604    434.69474    330.54907    53.871669    38760.619 
   74900    314.98341   -1398.5608     423.1957    434.87129    287.38861    38760.619 
   75000     299.7657   -1418.6803    439.12374    362.54748    679.39806    38760.619 
   75100     307.0944   -1430.7025     434.0957    378.30912    397.75729    38760.619 
   75200    295.26415   -1392.0446    451.59049    381.49566    349.11984    38760.619 
   75300    302.53951   -1413.5814    460.52008    401.46155    671.45718    38760.619 
   75400    302.58685   -1396.5165    423.07231    381.29057    735.48607    38760.619 
   75500     292.9478   -1386.9244    430.30293    354.95765     563.9352    38760.619 
   75600    298.46776   -1409.5431    430.65613    357.40591    30.862491    38760.619 
   75700    292.47367   -1392.5582     444.8133     361.7114    348.92333    38760.619 
   75800    295.70552   -1401.0285    434.74919     357.6465   -131.32294    38760.619 
   75900    292.88498   -1405.1284    438.07777     344.2472   -156.21159    38760.619 
   76000    300.87978   -1401.8067    419.94936    365.23456   -221.79478    38760.619 
   76100    292.79096   -1392.3764    433.92692    352.42736     131.8619    38760.619 
   76200    288.30574   -1389.2143    434.39458    335.97604   -35.114741    38760.619 
   76300    306.31953   -1424.3473    437.41898    384.51837    93.227332    38760.619 
   76400    302.38089   -1390.9499    436.26417    399.12697    254.59805    38760.619 
   76500    300.48604   -1394.7684    458.97056    409.53128    628.36817    38760.619 
   76600    307.68556   -1404.7123    449.71692    422.56724    1048.8261    38760.619 
   76700     299.7608   -1401.3004    437.01684     377.7985    654.69712    38760.619 
   76800    304.06328   -1393.0819    434.41428    402.67741    212.85255    38760.619 
   76900     303.7307   -1342.0009     449.8251    467.68024    55.579366    38760.619 
   77000    306.29586   -1367.1683    450.67589    454.84826    114.60827    38760.619 
   77100     296.2224   -1414.5777    442.72525    354.38752   0.53695533    38760.619 
   77200    296.91891   -1387.4962    467.04531    408.90759    760.29324    38760.619 
   77300    301.29136   -1412.0964    443.14463    379.98289     521.8337    38760.619 
   77400    307.60191   -1390.3631    432.49242    419.31737    365.26065    38760.619 
   77500    294.26682   -1395.3359    443.30535    365.45404   -299.93732    38760.619 
   77600    299.35431   -1399.7498    435.65195     376.1643   -29.083113    38760.619 
   77700    296.47977   -1451.4122    452.43229    328.41236   -201.91293    38760.619 
   77800    296.17291   -1458.1767    436.56496    304.40676    -175.0366    38760.619 
   77900    310.27342   -1406.4582    453.21433    435.90504    -473.4624    38760.619 
   78000    294.79207   -1441.4156    451.18331    329.60387   -420.17888    38760.619 
   78100    312.99259   -1438.2212    416.27226    379.37415   -24.059435    38760.619 
   78200    301.28072   -1435.7396    433.80102    346.94848   -96.727085    38760.619 
   78300    295.35547   -1443.5109    456.25132    335.09902   -214.82143    38760.619 
   78400    305.08698    -1449.045    457.59229    374.47564   -131.77496    38760.619 
   78500    294.27177   -1434.0482     431.3489    314.80741    -94.45872    38760.619 
   78600    300.69039   -1438.2307     448.2813    356.29463     44.55083    38760.619 
   78700    290.48597   -1451.9018    437.98078    286.63594   -228.96719    38760.619 
   78800    307.44433   -1430.0212    429.73161    376.19297    329.91058    38760.619 
   78900    300.26028   -1444.9825    435.98976    335.32559    332.73186    38760.619 
   79000    316.56777   -1392.7259    455.56502    480.16892    96.137591    38760.619 
   79100    307.75637   -1408.4604    438.32981     407.7491   -208.03501    38760.619 
   79200    294.35671   -1414.8801    427.62297    330.62991    291.09949    38760.619 
   79300    292.75751   -1440.1298    426.88821    297.48553   -292.60161    38760.619 
   79400    305.23499   -1448.7924    427.30302    345.10158   -9.6712518    38760.619 
   79500    292.67245   -1435.5796    438.73095    313.49759   -457.93545    38760.619 
   79600    289.92289   -1484.8738    413.68864    226.85083   -47.336679    38760.619 
   79700    304.28257    -1417.048    446.56224    391.84111    246.08393    38760.619 
   79800    306.73999   -1456.0533    444.63729    361.91306     69.40285    38760.619 
   79900    298.83969   -1423.3445     440.7718    355.38537   -247.37962    38760.619 
   80000    303.91623   -1429.3144    441.10867    372.48093   -436.71005    38760.619 
   80100     309.7466   -1409.0202    425.36222    403.13229    -557.6163    38760.619 
   80200    300.41874   -1420.8509    443.31504    367.49192   -945.54284    38760.619 
   80300    305.75518   -1443.5739    427.56181    352.90792   -892.66198    38760.619 
   80400    295.78105   -1454.4168    463.24798    333.09522   -309.55021    38760.619 
   80500    309.48378   -1472.9869    436.70711    349.33372   -207.36646    38760.619 
   80600    291.53753    -1465.438    424.62565     264.4527   -472.22666    38760.619 
   80700    294.66232   -1445.4141    436.91274    310.75389   -92.267746    38760.619 
   80800    303.80333   -1426.1305    445.36516    379.41582   -151.32064    38760.619 
   80900    293.47823   -1436.6157    422.61852    299.95668   -207.72557    38760.619 
   81000    296.41457   -1424.5833    425.31176    327.82888   -240.51584    38760.619 
   81100    300.63318    -1416.942    448.14564    377.19154   -295.27204    38760.619 
   81200    298.00786   -1426.1323    458.67648      366.778    169.92767    38760.619 
   81300    306.51477   -1406.1272    436.42125    402.61487    490.91187    38760.619 
   81400     308.3199   -1480.0863    431.73364    332.04998    317.50608    38760.619 
   81500     304.6625   -1445.9063    422.46331     340.5848    382.93392    38760.619 
   81600    294.09635   -1444.9201     412.4261     284.2273   -329.94694    38760.619 
   81700    295.66435   -1471.6102     437.5178    289.64909   -61.583514    38760.619 
   81800    299.16484    -1488.205    413.11905    264.32789   -115.45778    38760.619 
   81900    300.06415   -1490.8328    432.12983    284.73721    5.7130816    38760.619 
   82000    303.17628   -1483.1472    434.24845    308.47509    56.219149    38760.619 
   82100    291.41775   -1465.2979     442.4216    281.85244   -171.49638    38760.619 
   82200    305.57266    -1446.307    423.46387    345.25962   -733.69424    38760.619 
   82300    298.97888   -1430.2038    434.46641    342.84384   -641.66836    38760.619 
   82400    305.31973   -1454.3082    429.26109    341.92325   -365.42541    38760.619 
   82500    294.04174   -1434.6313    426.08798    307.93351   -196.21693    38760.619 
   82600    293.73101   -1447.4743    423.89736    291.50872   -149.02593    38760.619 
   82700    297.30318   -1441.1961     429.4303    319.31305   -225.22749    38760.619 
   82800    307.77958   -1425.5359    448.82849     401.2762    128.78221    38760.619 
   82900    307.00291    -1409.225    442.09057    407.37185    136.39334    38760.619 
   83000    298.67369   -1407.4082    456.42251    386.22916    124.78869    38760.619 
   83100    302.09041   -1400.8603    438.41001    390.06186    325.07112    38760.619 
   83200    295.02926   -1410.0174    439.28379    350.16451   -10.351733    38760.619 
   83300    306.31218   -1424.8107    409.91529    356.51833   -314.23816    38760.619 
   83400    308.97074   -1385.1245    431.17308    429.36516   -386.57913    38760.619 
   83500     306.5128   -1387.2478     447.6138      432.678   -164.90817    38760.619 
   83600    291.50305   -1365.1273    437.14796    377.13134   -95.390769    38760.619 
   83700    284.57172   -1381.6395    440.41367    332.85202   -163.29775    38760.619 
   83800    295.98657   -1407.5858    444.09879    361.69711   -193.62064    38760.619 
   83900    300.91704   -1440.3946    441.97173    348.83592   -116.46697    38760.619 
   84000    304.82623   -1415.9696     447.0901     395.8814    -9.657911    38760.619 
   84100    296.05275   -1464.9873    417.84341    278.33658    255.30191    38760.619 
   84200    300.01619   -1439.1978    450.75695    354.78465    89.158348    38760.619 
   84300    296.28281   -1429.2706    452.02844    349.26827    166.14694    38760.619 
   84400    293.52208    -1416.646    418.71037    316.21463    206.83717    38760.619 
   84500    302.27283   -1398.4761     426.7655    381.61832    181.14291    38760.619 
   84600    300.81969   -1466.8213    426.20096    306.20252    345.29461    38760.619 
   84700     300.9606   -1461.4812    432.91173    318.88434   -12.648288    38760.619 
   84800    302.36856   -1441.5679    452.42026    364.60979    291.90626    38760.619 
   84900    305.29221   -1454.8409    422.75729    334.76356    471.23031    38760.619 
   85000    306.84026   -1463.7373    430.01184    340.05258    374.68086    38760.619 
   85100      300.086   -1439.4431    416.89133    320.98631    809.01267    38760.619 
   85200    296.60067   -1468.2023    423.87622    283.60754    562.32419    38760.619 
   85300    301.64671    -1438.277    428.27593    340.52453    324.02214    38760.619 
   85400    299.67402   -1458.2042    428.56845    312.05778    698.59908    38760.619 
   85500    310.19608   -1473.6354    426.91064    342.07792    613.21612    38760.619 
   85600    295.32944   -1446.7142    429.89806    305.42596    191.83336    38760.619 
   85700    288.57561   -1462.7792    410.18358    239.40838    400.07529    38760.619 
   85800    311.31363   -1505.5606    425.07219    313.31776    468.61219    38760.619 
   85900    295.89155    -1472.558    444.71168    296.91242     60.16334    38760.619 
   86000    297.53439   -1459.0626    449.70554    322.75695    280.95951    38760.619 
   86100    295.41026    -1480.916    445.36713    287.05501    373.65171    38760.619 
   86200    297.70095    -1488.112    421.49774    266.24551   -74.254615    38760.619 
   86300    302.21118   -1454.1346    420.16967    319.08793    120.81944    38760.619 
   86400    304.29034   -1421.8691    451.29145      391.784   -194.05205    38760.619 
   86500    299.04229   -1438.3249    421.49563    322.03587   -70.942233    38760.619 
   86600     308.5309   -1472.6337    422.34638    331.06001   -23.511839    38760.619 
   86700    312.40477    -1454.502    439.17539    383.36476    466.46243    38760.619 
   86800    292.15299     -1424.26    461.93977    345.70034   -221.01327    38760.619 
   86900    302.83637   -1415.6636    439.02766    379.21601   -87.095061    38760.619 
   87000    295.85356   -1424.7717    441.25724    341.07424   -196.73137    38760.619 
   87100    302.04835   -1455.7958    438.07176    334.59977    146.63239    38760.619 
   87200     293.3874   -1452.9878    432.71962    293.27902    585.01881    38760.619 
   87300    299.67197   -1422.8103    428.45572    347.32978    439.71537    38760.619 
   87400     295.7675   -1400.3855    432.71999    356.53785   -487.17898    38760.619 
   87500     298.5383    -1419.585     449.6364    366.66007   -299.53448    38760.619 
   87600    296.46013    -1430.481    427.53718    324.36057   -92.782306    38760.619 
   87700    297.08339   -1412.7638    457.03404    374.36505    174.97426    38760.619 
   87800    302.34756   -1409.6805    432.90274    376.88573   -124.17673    38760.619 
   87900    296.86235   -1364.7129    449.50742     413.8997     293.5944    38760.619 
   88000     302.3037   -1442.6466    428.19606    339.01652   -193.21054    38760.619 
   88100    299.48667   -1409.5546    430.51597    361.81611   -362.09822    38760.619 
   88200    308.69494    -1387.957    461.49654    455.62128   -252.17397    38760.619 
   88300     302.5476   -1410.7985    446.73999    390.50058    40.280594    38760.619 
   88400    300.38815   -1384.8637    422.34786    382.37503    261.30995    38760.619 
   88500    291.67935   -1414.7135    437.03931    328.22583    111.06296    38760.619 
   88600    305.60791   -1422.0729    417.08668    363.27436   -186.61521    38760.619 
   88700    290.87032   -1387.1161    448.01692    363.17865    280.81651    38760.619 
   88800    298.57001   -1414.0855    419.12601    341.79118    152.10113    38760.619 
   88900    302.04027   -1433.2744    426.83305    345.84627   -144.75824    38760.619 
   89000    298.58089   -1365.4978    440.23913    411.54075    270.53519    38760.619 
   89100    307.17857   -1380.7519     445.5896    440.13046    452.21804    38760.619 
   89200    304.77709   -1410.1721    414.07031    368.43916    637.99915    38760.619 
   89300    297.25243    -1423.664    437.30105    344.48873     380.2837    38760.619 
   89400    295.46369   -1412.4854    439.32868    349.68644   -86.355795    38760.619 
   89500    307.77355   -1430.6909    419.92005    367.18573    361.95117    38760.619 
[...]
  984500    296.46158     -1489.02    466.37945    304.67032    580.60337    38760.619 
  984600    299.66411   -1455.6426    483.77999    369.78661    383.95393    38760.619 
  984700    305.20233   -1465.4748     484.7371    385.70707    400.29955    38760.619 
  984800    299.87538   -1442.7407    459.98414    359.83849    400.94286    38760.619 
  984900    291.58669   -1457.5239      483.207    331.16828    183.05525    38760.619 
  985000    302.08711   -1417.0567    490.55507    425.99571    323.41211    38760.619 
  985100    297.25053   -1433.5338    470.12718     367.4365    -213.4369    38760.619 
  985200    296.92685   -1447.2258     460.2927    342.46089   -381.75588    38760.619 
  985300    300.77725   -1442.7571    454.66833    358.54413   -214.53069    38760.619 
  985400    300.45753   -1449.1365    459.51026    355.57522   -95.666054    38760.619 
  985500    313.68933   -1432.3552    480.52003    452.60736   -538.61235    38760.619 
  985600    302.51318   -1436.2422    456.27855    374.44128   -416.05604    38760.619 
  985700    306.01713    -1438.653     464.5256    395.96533   -24.452619    38760.619 
  985800      306.679   -1464.8501    450.92789    359.13386   -97.624095    38760.619 
  985900    308.29772    -1439.563    461.32157    402.06193   -264.69672    38760.619 
  986000     297.0703   -1427.5582    478.20956     380.6876   -25.117251    38760.619 
  986100    295.76202   -1447.1054    450.71221    327.78562    127.31925    38760.619 
  986200    295.80056   -1448.2031    464.34656    340.49481   -199.68664    38760.619 
  986300    306.89595   -1443.9342    493.30826    423.40147    72.657215    38760.619 
  986400    304.78507   -1473.6674    437.73911    328.64837    381.28137    38760.619 
  986500    301.44451   -1512.9577    480.08359    316.74619   -36.203748    38760.619 
  986600    304.76109   -1460.8201    464.99143    368.64056    292.93579    38760.619 
  986700    290.14712   -1415.7801    470.52838    353.78819   -473.23604    38760.619 
  986800    288.44676   -1412.7367    474.31418    353.00454    282.53853    38760.619 
  986900    299.19405   -1445.2935    459.19228    353.44336   -70.322446    38760.619 
  987000     298.9395   -1449.7945    480.74626    369.35676   -148.33855    38760.619 
  987100    287.98842   -1429.9024    460.75279    320.22537   -536.51319    38760.619 
  987200    296.31509   -1472.4158    486.02395    340.26322   -533.34703    38760.619 
  987300    300.99102   -1475.7425    449.08807    320.93551   -235.64202    38760.619 
  987400    307.35369   -1463.4633    467.43875    380.05217     -154.746    38760.619 
  987500    291.62716   -1436.0326    451.20309    320.83687   -139.65545    38760.619 
  987600    297.65501   -1482.6032    464.94743    314.99825    122.89707    38760.619 
  987700    309.98134   -1435.0825    488.86167    441.62046    -185.7868    38760.619 
  987800    301.40523   -1487.0238    439.19294    301.61358   -524.76759    38760.619 
  987900    298.59158   -1472.2306    476.69886    341.31549   -317.79576    38760.619 
  988000    298.21585   -1443.6427    437.27503    328.79744   -67.633012    38760.619 
  988100    296.95683   -1475.6445    481.37622    335.25995   -68.517005    38760.619 
  988200     295.2803   -1484.7099    441.78999    279.10219   -813.58073    38760.619 
  988300    307.07548   -1482.8086    476.22985    368.25241    -208.3962    38760.619 
  988400    298.06302    -1488.136    449.99465    296.33948    12.470025    38760.619 
  988500    297.03045   -1481.4259    470.58072     319.0126    244.69439    38760.619 
  988600    306.84763   -1438.7522    495.22455    430.28338    621.87772    38760.619 
  988700    297.74186   -1471.5497    495.75811    357.25127    569.34355    38760.619 
  988800    301.76598   -1472.0297    468.81586     347.8458    450.67923    38760.619 
  988900      312.423   -1455.2082    485.35971    428.92444    508.70103    38760.619 
  989000    306.67524   -1428.4705    480.70137    425.27015    439.79051    38760.619 
  989100    307.79772    -1447.986    453.89971    383.97847    174.09582    38760.619 
  989200     307.3025   -1461.5429    476.16397    390.46861   -52.005563    38760.619 
  989300    284.60187   -1454.4805    471.72397     291.4563   -60.008642    38760.619 
  989400    292.33255   -1464.2087    486.76687    331.38269   -345.19613    38760.619 
  989500    307.07622   -1455.5431    465.71767    385.00907    136.50024    38760.619 
  989600     305.9275   -1454.6566    455.18978    370.22468   -136.29273    38760.619 
  989700    297.96768    -1465.304    467.07649    335.82647   -421.01777    38760.619 
  989800    310.96722   -1442.7749    447.54003    397.02033   -7.0153655    38760.619 
  989900    304.11617   -1466.9053    487.67984    382.35634   -407.07735    38760.619 
  990000    302.18911   -1453.3459    444.22573    343.83386    -450.4754    38760.619 
  990100    307.33415   -1490.3654    459.82456    345.44841   -359.86026    38760.619 
  990200    301.83855   -1451.9198    479.94603    379.41074   -149.75824    38760.619 
  990300    303.06919   -1524.7372    445.14329    277.30039   -134.02716    38760.619 
  990400    298.47466   -1392.1529    496.25978    440.43069   -121.37201    38760.619 
  990500    291.70176   -1480.0248    457.68855    283.66404    -311.2516    38760.619 
  990600    303.00244   -1490.8942    451.17423    316.87552   -340.14293    38760.619 
  990700    307.27168   -1439.0051    448.48727    385.19181   -423.68009    38760.619 
  990800    302.22211     -1426.35    447.52244    374.27424   -683.25255    38760.619 
  990900    302.48099   -1464.2456    462.31002     352.3252    -149.9632    38760.619 
  991000    309.00304    -1452.599    468.18364    399.04581   -196.15432    38760.619 
  991100    301.28919   -1444.0043    473.96099    378.88161   -90.887852    38760.619 
  991200     300.7236     -1433.77    486.94172    399.56448    85.265049    38760.619 
  991300    299.69834   -1459.5643    472.55618    354.79434   -42.712585    38760.619 
  991400    294.65004   -1461.2003    461.46376    319.46377    81.988754    38760.619 
  991500    304.12313   -1496.5656    471.40081    336.44818   -65.672276    38760.619 
  991600    293.77946   -1485.4278    468.27378    298.14855    81.659716    38760.619 
  991700    295.64498   -1477.9598    443.28669    288.98171   -130.29936    38760.619 
  991800     301.4832   -1489.1724    501.74398    362.36513     960.6279    38760.619 
  991900    296.29587   -1481.0648    479.39639    324.90052    782.82546    38760.619 
  992000    307.74871   -1480.8293    474.07777     371.0938    717.85668    38760.619 
  992100     298.2032    -1501.303    471.91609    305.72147    663.22265    38760.619 
  992200    296.68209   -1489.9865    479.86777    318.17942    486.98891    38760.619 
  992300    304.66121   -1495.7526     481.3709     349.6404    381.33497    38760.619 
  992400    309.86406   -1489.7504    495.86355    393.42926    507.25957    38760.619 
  992500    298.11747   -1474.7991    458.00398    317.92945   -122.16103    38760.619 
  992600    288.64359   -1460.4889    466.23006    298.04953    191.81712    38760.619 
  992700    307.94566   -1460.1262    479.78233    398.38328    10.091418    38760.619 
  992800    301.01255   -1449.0353    479.89243    378.54351    8.6330185    38760.619 
  992900    294.74136   -1434.6393      517.353    402.32279   -545.52407    38760.619 
  993000    293.94784    -1469.263    470.80184    317.59532   -141.67614    38760.619 
  993100    292.68312   -1483.4432    454.14708    281.09787   -565.93204    38760.619 
  993200    302.86418   -1467.9483    468.29425    356.32236   -402.72271    38760.619 
  993300    299.01721   -1496.9446    475.81024    317.61852   -79.900937    38760.619 
  993400    299.22358   -1508.4669    466.04281    297.25275   -456.39864    38760.619 
  993500    303.90205    -1485.188    471.99004    347.42526    -566.8169    38760.619 
  993600    288.13884   -1477.0534    475.93621    288.93134   -209.93328    38760.619 
  993700    301.38639   -1457.8441     472.4753    363.99132    -80.40974    38760.619 
  993800    286.55851   -1479.3276    487.88462    291.53006   -643.10447    38760.619 
  993900     305.2594   -1441.6024    449.90226    375.00016   -348.70853    38760.619 
  994000    296.77844   -1489.8075    477.16427     316.0863    167.24913    38760.619 
  994100     295.3459   -1501.9264    473.97279    294.36212   -325.64776    38760.619 
  994200     292.1006   -1482.4809    472.63394    297.93903    96.939255    38760.619 
  994300    303.16759    -1511.721    467.95463    313.56857     98.34142    38760.619 
  994400    297.46303   -1497.2373    484.65569    319.21294    350.09246    38760.619 
  994500    304.45059   -1446.4143    469.52389    386.18871    245.92979    38760.619 
  994600     288.6984   -1455.7791    491.90125    328.67587   -126.80117    38760.619 
  994700    292.31806   -1481.4582    470.93675    298.23822   -31.037843    38760.619 
  994800    314.97351   -1472.7909    480.83486    418.23596   -46.663202    38760.619 
  994900    302.31072   -1424.8474    458.96674    387.61789    298.68226    38760.619 
  995000    296.24391   -1470.2476    470.11287    326.20164    98.225616    38760.619 
  995100    297.32161   -1458.8775    450.23921    322.52304   -69.391604    38760.619 
  995200    300.04176   -1452.3263    485.91509    376.92873   -244.46044    38760.619 
  995300    308.34623   -1474.8825    457.83329    363.47132   -87.216781    38760.619 
  995400    296.90369   -1424.3243     483.5764    388.54235   -359.90527    38760.619 
  995500    295.28791   -1466.9694    460.26574    315.35246   -259.51009    38760.619 
  995600    292.39525   -1426.3357    479.56524    362.33469    175.24011    38760.619 
  995700    306.64325   -1451.9636    490.88198    411.81441    339.94227    38760.619 
  995800    284.12821   -1447.9423     476.4371    300.58701   -139.57541    38760.619 
  995900    297.83176   -1467.2689    445.17936    311.35588    111.73521    38760.619 
  996000    296.07815    -1471.813     461.6398    315.42096    4.2920756    38760.619 
  996100    300.71657   -1467.2157    462.52812    341.67361    607.16431    38760.619 
  996200    303.98835   -1492.9406    475.06285     343.1318    435.87229    38760.619 
  996300    293.84543   -1458.6242    479.20272    336.17646    192.14627    38760.619 
  996400    311.04481   -1430.9851    467.43361    429.05111    2.3637451    38760.619 
  996500     302.6404   -1445.6503    482.20885    391.53304   -186.09241    38760.619 
  996600    298.50244   -1454.2846    450.74806    332.91163   -56.174255    38760.619 
  996700    303.51322   -1464.7274    447.25032    341.40523   -68.746309    38760.619 
  996800    309.48906   -1453.0916    466.50217    399.04779   -193.67177    38760.619 
  996900     303.4702   -1473.0085    458.28869    343.96996   -78.716786    38760.619 
  997000    301.00794    -1483.443    459.70992    323.93267   -356.01816    38760.619 
  997100    296.42276   -1436.2678     465.4837    356.35299   -628.80382    38760.619 
  997200    295.89975   -1448.9859     480.3929    356.20241    -668.8208    38760.619 
  997300    299.60299   -1442.7442    483.68727    382.31858   -329.15467    38760.619 
  997400    306.35125   -1472.5823    470.93073    369.93707     147.7574    38760.619 
  997500    291.92256   -1460.1438    491.38401    338.22911    17.036835    38760.619 
  997600    291.15951   -1481.7849    466.28468    288.07237    129.63432    38760.619 
  997700    301.49501    -1484.716    455.33367     320.4641    289.10711    38760.619 
  997800     297.5069   -1476.4308    459.18862    314.74884   -12.090084    38760.619 
  997900    299.23027   -1460.0256    464.52508    344.20628    322.24092    38760.619 
  998000    302.67352   -1477.6055    468.14602     345.6634     662.2977    38760.619 
  998100    294.49127   -1488.0812    439.95003    270.35829    696.59512    38760.619 
  998200    297.71993   -1527.8801    440.46623    245.53088    749.42774    38760.619 
  998300    302.79344   -1483.6109    476.55421    348.60306    66.637448    38760.619 
  998400    300.02294   -1459.8611    446.68925    330.08389    223.09247    38760.619 
  998500    312.28273   -1466.7542     489.6259     421.0166   -175.42184    38760.619 
  998600    298.62964   -1471.4209    460.81618    326.41297   -156.92786    38760.619 
  998700    287.52344   -1429.2044    486.42674    344.51559   -112.24583    38760.619 
  998800    301.24739   -1441.2175    452.72728    360.24753    -753.5467    38760.619 
  998900    308.71671   -1417.4533    479.49831    444.22429   -621.15366    38760.619 
  999000    313.03496   -1424.7674      485.383    462.12838    -839.4748    38760.619 
  999100    296.91965   -1458.4143    477.53534    348.48274   -542.02843    38760.619 
  999200    290.37772   -1419.1579     454.5268    335.44127   -371.77439    38760.619 
  999300    311.33786   -1482.1017    472.39119    384.20415    218.21521    38760.619 
  999400    310.51822   -1457.9815    473.75068    406.01416    64.360961    38760.619 
  999500    298.34242   -1458.9999    444.70798    321.43987   -362.86989    38760.619 
  999600    322.83542   -1512.9496    435.13461    367.57622    78.170993    38760.619 
  999700    309.08568   -1468.9192    482.83178    397.74385    143.30406    38760.619 
  999800    305.17579   -1505.5711    449.74882    310.50364   -24.865215    38760.619 
  999900    299.83965   -1486.1412    469.30337    325.59725    64.546612    38760.619 
 1000000    294.48886   -1490.2269    489.42128    317.67299    295.30007    38760.619 
 1000100    301.29902   -1510.8979    477.05602    315.12702   -14.282319    38760.619 
 1000200    301.52082   -1497.4613    489.22698    341.72765     1.233395    38760.619 
 1000300    291.47593   -1500.3435    451.92288    256.56859   -333.75068    38760.619 
 1000400    302.17042   -1468.0795    467.99122    352.78209    22.189692    38760.619 
 1000500    298.86466   -1490.0278     465.9195    313.96158    184.64912    38760.619 
 1000600    290.03064   -1493.1124    451.20541    256.61145   -277.01054    38760.619 
 1000700    300.79447   -1460.0316    456.88025    343.55869    371.73245    38760.619 
 1000800    296.92491   -1495.2358    474.69387    308.84335   -361.71603    38760.619 
 1000900    300.91257   -1513.8774    445.74839    279.10977   -261.72131    38760.619 
 1001000    299.70432   -1502.6589    464.83119     304.0015   -449.73288    38760.619 
 1001100     304.1163   -1477.8184    481.56009    365.32406   -341.12008    38760.619 
 1001200      299.589    -1428.748    498.42801    410.99291   -126.07246    38760.619 
 1001300    297.94483   -1444.0111    487.18989    377.13039    -288.9081    38760.619 
 1001400    297.53815   -1437.7631    480.98045     375.3482   -80.255328    38760.619 
 1001500    306.92502    -1417.987    483.81997     439.9905   -416.95103    38760.619 
 1001600    305.16641    -1430.341    489.72105    425.66397    99.210259    38760.619 
 1001700    296.15138   -1470.2561    448.03099    303.69693    540.44472    38760.619 
 1001800    298.36938   -1456.8706    486.12052    365.10241    387.40514    38760.619 
 1001900    294.16891   -1465.4944    478.77592    330.32767    637.42956    38760.619 
 1002000    295.22988   -1460.5054     469.0834    330.37429   -91.989509    38760.619 
 1002100    294.55266    -1494.293    443.41617    267.88744   -655.67204    38760.619 
 1002200    309.07329     -1476.09    456.08151    363.76718   -608.23784    38760.619 
 1002300    304.30414   -1480.8257    463.10277    344.70047   -1029.4858    38760.619 
 1002400    309.55076   -1445.8916    505.13418    445.15601   -186.77244    38760.619 
 1002500    295.87757   -1461.3438    447.85835    311.21068   -87.687216    38760.619 
 1002600    298.39441   -1526.2561      471.059    280.76735    542.28952    38760.619 
 1002700    298.88317   -1476.4947    495.27319    356.93123    450.88929    38760.619 
 1002800    293.13687   -1540.6658    459.80745    231.56722   -256.51889    38760.619 
 1002900    308.67349   -1530.0832    459.54072    311.44331    202.92547    38760.619 
 1003000    307.06869   -1532.5904    465.35192    307.56235    160.43268    38760.619 
 1003100    303.05897   -1538.6889    464.46015     282.6198   -3.7520312    38760.619 
 1003200    297.83327   -1562.3529    483.87025    254.96952    575.90175    38760.619 
 1003300    293.01413   -1529.0258    483.41342    266.26367    524.43934    38760.619 
 1003400    306.68079   -1514.5011    471.81594     330.3789    666.09089    38760.619 
 1003500    301.91448   -1487.3425    485.63044     350.0124    540.53994    38760.619 
 1003600    303.33925   -1483.8906    478.06711     352.2799   -35.722446    38760.619 
 1003700     303.1275   -1501.5954    483.46474    339.02468   -472.48063    38760.619 
 1003800    306.38637   -1494.8766    458.59544    335.46482    171.59037    38760.619 
 1003900    312.32803   -1471.6537    486.64009    413.33419   -578.58395    38760.619 
 1004000    314.75607   -1499.9629    455.48931      364.745   -192.89432    38760.619 
 1004100     295.3689   -1458.8403    471.56152    335.13997   -211.33686    38760.619 
 1004200     294.1884   -1530.9208    459.61743    245.83008   -16.403566    38760.619 
 1004300    293.62931   -1474.5257    463.50235    303.60692     93.30401    38760.619 
 1004400    312.74839   -1516.2445     451.6601    335.64536    301.27463    38760.619 
 1004500    300.65608    -1477.562    473.41923    341.94766    571.46366    38760.619 
 1004600    292.83276   -1530.8473    453.08456     233.3013    400.56473    38760.619 
 1004700    300.15996   -1509.8993    470.61855    304.58846   -97.610206    38760.619 
 1004800     302.4432   -1494.2924    468.76039    328.55963    372.26365    38760.619 
 1004900    301.75345   -1516.5229    462.46602    296.94665    120.99096    38760.619 
 1005000     299.2709    -1479.308    468.41956    329.00025    184.62988    38760.619 
 1005100    295.79214    -1448.762    475.59313    351.14475    420.66215    38760.619 
 1005114    306.44133   -1412.4898     497.9644     457.4666    632.77854    38760.619 
Loop time of 610.963 on 32 procs for 1000000 steps with 1503 atoms

Performance: 141.416 ns/day, 0.170 hours/ns, 1636.759 timesteps/s
100.0% CPU use with 32 MPI tasks x no OpenMP threads

MPI task timing breakdown:
Section |  min time  |  avg time  |  max time  |%varavg| %total
---------------------------------------------------------------
Pair    | 238.13     | 267.34     | 294.03     |  99.8 | 43.76
Bond    | 1.3582     | 1.4738     | 1.5944     |   5.3 |  0.24
Neigh   | 39.81      | 39.859     | 39.902     |   0.5 |  6.52
Comm    | 264.26     | 290.94     | 320.28     |  96.0 | 47.62
Output  | 0.38888    | 0.40389    | 0.81341    |  11.6 |  0.07
Modify  | 8.0023     | 8.2273     | 8.3721     |   3.1 |  1.35
Other   |            | 2.721      |            |       |  0.45

Nlocal:        46.9688 ave          75 max          25 min
Histogram: 4 4 5 2 2 4 4 3 2 2
Nghost:        1933.84 ave        2075 max        1789 min
Histogram: 7 8 1 0 0 0 0 2 6 8
Neighs:        5133.88 ave        8743 max        2102 min
Histogram: 4 4 4 3 3 3 4 2 1 4

Total # of neighbors = 164284
Ave neighs/atom = 109.30406
Ave special neighs/atom = 2.0000000
Neighbor list builds = 49803
Dangerous builds = 0

# Output the system volume
variable v equal vol
print 'The system volume is $v'
The system volume is 38760.6187477327

# Outputs
variable A equal xhi-xlo
variable B equal yhi-ylo
variable C equal zhi-zlo
variable D equal xy
variable E equal xz
variable F equal yz
print 'Lattice vectors'
Lattice vectors
print '$A 0 0'
33.8425880155188 0 0
print '$D $B 0'
0 33.8425880155188 0
print '$E $F $C'
0 0 33.8425880155188
Total wall time: 0:10:15
