LAMMPS data file
 1509 atoms
 1009 bonds
 513 angles
 16 dihedrals
 4 impropers
 5 atom types
 5 bond types
 3 angle types
 2 dihedral types
 1 improper types
 0 15 xlo xhi
 0 15 ylo yhi
 0 15 zlo zhi
 0 0 0 xy xz yz

# Atom types
#
# 1 C_2
# 2 N_2
# 3 H__HB
# 4 H_
# 5 O_3

# Bond Coeffs
#
# 1 C_2*N_2
# 2 C_2*C_2
# 3 N_2*H__HB
# 4 C_2*H_
# 5 O_3*H__HB

# Angle Coeffs
#
# 1 C_2
# 2 N_2
# 3 O_3

# Dihedral Coeffs
#
# 1 C1
# 2 C2

# Inversion Coeffs
#
# 1 1

 Masses

 1 12.01
 2 14.01
 3 1.01
 4 1.01
 5 16

 Atoms # full

1 1 1 0 10.6112574540256 4.07531158384854 5.86783188933724
2 1 2 0 11.2375258355287 4.46119510254715 4.72034414895552
3 1 2 0 10.7231733644234 5.06919200136359 6.77624346713662
4 1 1 0 11.7339091060325 5.69508073007204 4.93068441364915
5 1 1 0 11.4098748336311 6.07187505225973 6.22026562438247
6 1 3 0 11.3793790348677 3.74855437797079 3.48385484551914
7 1 4 0 12.2597907545292 6.26526822334039 4.26391276286096
8 1 4 0 11.649897267845 6.95656413306186 6.66986464727233
9 1 4 0 9.92413007553807 2.88276398755757 6.17885305632341
10 2 3 0 5.02182605138049 9.94301780284382 8.16290144459344
11 2 5 0 5.98182605138049 9.94301780284382 8.16290144459344
12 2 3 0 6.22182605138049 9.01301780284382 8.16290144459344
13 3 3 0 13.3732601422537 14.1726002392266 11.0813560418319
14 3 5 0 14.3332601422537 14.1726002392266 11.0813560418319
15 3 3 0 14.5732601422537 13.2426002392266 11.0813560418319
16 4 3 0 4.32801388364285 9.72290145390667 14.6651403349824
17 4 5 0 5.28801388364285 9.72290145390667 14.6651403349824
18 4 3 0 5.52801388364285 8.79290145390667 14.6651403349824
19 5 3 0 -0.622855226537213 14.2635207510926 4.41414671950042
20 5 5 0 0.337144773462787 14.2635207510926 4.41414671950042
21 5 3 0 0.577144773462787 13.3335207510926 4.41414671950042
22 6 3 0 13.0935715189856 10.1137063516676 14.2955640982836
23 6 5 0 14.0535715189856 10.1137063516676 14.2955640982836
24 6 3 0 14.2935715189856 9.18370635166764 14.2955640982836
25 7 3 0 4.25456127894111 1.84783134068362 4.7449091495946
26 7 5 0 5.21456127894111 1.84783134068362 4.7449091495946
27 7 3 0 5.45456127894111 0.917831340683624 4.7449091495946
28 8 3 0 0.774986411416903 4.00306204956956 0.700283726910129
29 8 5 0 1.7349864114169 4.00306204956956 0.700283726910129
30 8 3 0 1.9749864114169 3.07306204956956 0.700283726910129
31 9 3 0 -0.532564359745011 7.24079594289884 3.01942427759059
32 9 5 0 0.427435640254989 7.24079594289884 3.01942427759059
33 9 3 0 0.667435640254989 6.31079594289884 3.01942427759059
34 10 3 0 9.53562505004927 11.8212034219783 11.4764877059497
35 10 5 0 10.4956250500493 11.8212034219783 11.4764877059497
36 10 3 0 10.7356250500493 10.8912034219783 11.4764877059497
37 11 3 0 5.0196158343181 6.07960114995018 1.02458150940947
38 11 5 0 5.9796158343181 6.07960114995018 1.02458150940947
39 11 3 0 6.2196158343181 5.14960114995018 1.02458150940947
40 12 3 0 7.88657276236452 12.3106108318921 2.36990048317239
41 12 5 0 8.84657276236452 12.3106108318921 2.36990048317239
42 12 3 0 9.08657276236452 11.3806108318921 2.36990048317239
43 13 3 0 12.1880766323023 9.00632052374072 0.227258013328537
44 13 5 0 13.1480766323023 9.00632052374072 0.227258013328537
45 13 3 0 13.3880766323023 8.07632052374072 0.227258013328537
46 14 3 0 8.06925883909687 1.45669150905684 12.9191129584797
47 14 5 0 9.02925883909687 1.45669150905684 12.9191129584797
48 14 3 0 9.26925883909687 0.526691509056836 12.9191129584797
49 15 3 0 0.270112553117797 14.2496118873265 11.8530043400824
50 15 5 0 1.2301125531178 14.2496118873265 11.8530043400824
51 15 3 0 1.4701125531178 13.3196118873265 11.8530043400824
52 16 3 0 8.89849036859348 14.0487888249941 0.0189479277469218
53 16 5 0 9.85849036859348 14.0487888249941 0.0189479277469218
54 16 3 0 10.0984903685935 13.1187888249941 0.0189479277469218
55 17 3 0 0.484126303782687 15.1009392870497 4.55287390504964
56 17 5 0 1.44412630378269 15.1009392870497 4.55287390504964
57 17 3 0 1.68412630378269 14.1709392870497 4.55287390504964
58 18 3 0 2.0691820971854 9.68358720228076 3.18178892950527
59 18 5 0 3.0291820971854 9.68358720228076 3.18178892950527
60 18 3 0 3.2691820971854 8.75358720228076 3.18178892950527
61 19 3 0 2.51389388504438 11.9501162825059 13.8091522373725
62 19 5 0 3.47389388504438 11.9501162825059 13.8091522373725
63 19 3 0 3.71389388504438 11.0201162825059 13.8091522373725
64 20 3 0 9.87881592867896 1.17241357726976 13.7628514214884
65 20 5 0 10.838815928679 1.17241357726976 13.7628514214884
66 20 3 0 11.078815928679 0.242413577269763 13.7628514214884
67 21 3 0 13.8298328050598 2.06465314066969 0.865845432272181
68 21 5 0 14.7898328050599 2.06465314066969 0.865845432272181
69 21 3 0 15.0298328050599 1.13465314066969 0.865845432272181
70 22 3 0 7.69610189876519 9.17304110055789 9.1243350750301
71 22 5 0 8.65610189876519 9.17304110055789 9.1243350750301
72 22 3 0 8.89610189876519 8.24304110055789 9.1243350750301
73 23 3 0 6.82248626763001 14.6383937848173 9.8946294025518
74 23 5 0 7.78248626763001 14.6383937848173 9.8946294025518
75 23 3 0 8.02248626763001 13.7083937848173 9.8946294025518
76 24 3 0 6.40262404966168 5.14595849131234 10.1229615672491
77 24 5 0 7.36262404966168 5.14595849131234 10.1229615672491
78 24 3 0 7.60262404966168 4.21595849131234 10.1229615672491
79 25 3 0 1.10159315329045 3.9797677068878 5.94601662713103
80 25 5 0 2.06159315329045 3.9797677068878 5.94601662713103
81 25 3 0 2.30159315329045 3.0497677068878 5.94601662713103
82 26 3 0 13.082772089839 4.24163230037317 6.53009495814331
83 26 5 0 14.042772089839 4.24163230037317 6.53009495814331
84 26 3 0 14.282772089839 3.31163230037317 6.53009495814331
85 27 3 0 8.30639810345136 4.92326500400901 2.10906148538925
86 27 5 0 9.26639810345136 4.92326500400901 2.10906148538925
87 27 3 0 9.50639810345136 3.99326500400901 2.10906148538925
88 28 3 0 5.39025178106502 7.46364624513313 0.292314270045608
89 28 5 0 6.35025178106502 7.46364624513313 0.292314270045608
90 28 3 0 6.59025178106502 6.53364624513313 0.292314270045608
91 29 3 0 9.21705415399745 13.1853746370785 4.93337739491835
92 29 5 0 10.1770541539975 13.1853746370785 4.93337739491835
93 29 3 0 10.4170541539975 12.2553746370785 4.93337739491835
94 30 3 0 7.63094003356062 6.56536310602911 14.2636729124933
95 30 5 0 8.59094003356062 6.56536310602911 14.2636729124933
96 30 3 0 8.83094003356062 5.63536310602911 14.2636729124933
97 31 3 0 9.61889229060151 6.46078059141524 0.523649373790249
98 31 5 0 10.5788922906015 6.46078059141524 0.523649373790249
99 31 3 0 10.8188922906015 5.53078059141524 0.523649373790249
100 32 3 0 1.44425101971254 4.92700398940593 14.9945630854927
101 32 5 0 2.40425101971254 4.92700398940593 14.9945630854927
102 32 3 0 2.64425101971254 3.99700398940593 14.9945630854927
103 33 3 0 1.5650563202519 3.7260574618727 12.5526767433621
104 33 5 0 2.5250563202519 3.7260574618727 12.5526767433621
105 33 3 0 2.7650563202519 2.7960574618727 12.5526767433621
106 34 3 0 10.0702003114577 6.00449213449843 11.8244128755759
107 34 5 0 11.0302003114577 6.00449213449843 11.8244128755759
108 34 3 0 11.2702003114577 5.07449213449843 11.8244128755759
109 35 3 0 8.12887918713503 7.05317420343868 5.56383386836387
110 35 5 0 9.08887918713503 7.05317420343868 5.56383386836387
111 35 3 0 9.32887918713503 6.12317420343868 5.56383386836387
112 36 3 0 1.81905885620043 9.34789888834581 14.8184277873952
113 36 5 0 2.77905885620043 9.34789888834581 14.8184277873952
114 36 3 0 3.01905885620043 8.41789888834581 14.8184277873952
115 37 3 0 2.03493802735582 6.3279355845321 5.04390809917822
116 37 5 0 2.99493802735582 6.3279355845321 5.04390809917822
117 37 3 0 3.23493802735582 5.3979355845321 5.04390809917822
118 38 3 0 11.2589528253023 6.59717875340953 13.2948589324951
119 38 5 0 12.2189528253023 6.59717875340953 13.2948589324951
120 38 3 0 12.4589528253023 5.66717875340953 13.2948589324951
121 39 3 0 8.02882444739342 12.8259520597663 5.58962202281691
122 39 5 0 8.98882444739342 12.8259520597663 5.58962202281691
123 39 3 0 9.22882444739342 11.8959520597663 5.58962202281691
124 40 3 0 5.31114541154355 1.30212764296681 12.5188366428483
125 40 5 0 6.27114541154355 1.30212764296681 12.5188366428483
126 40 3 0 6.51114541154355 0.372127642966807 12.5188366428483
127 41 3 0 2.47718504324555 15.1613360857032 2.54529435303994
128 41 5 0 3.43718504324555 15.1613360857032 2.54529435303994
129 41 3 0 3.67718504324555 14.2313360857032 2.54529435303994
130 42 3 0 12.5901629535668 7.31433876132593 11.5935851424001
131 42 5 0 13.5501629535668 7.31433876132593 11.5935851424001
132 42 3 0 13.7901629535668 6.38433876132593 11.5935851424001
133 43 3 0 0.913896675193682 8.96774091798812 6.07782593462616
134 43 5 0 1.87389667519368 8.96774091798812 6.07782593462616
135 43 3 0 2.11389667519368 8.03774091798812 6.07782593462616
136 44 3 0 12.7913384749275 10.9256467937399 14.6892592823133
137 44 5 0 13.7513384749275 10.9256467937399 14.6892592823133
138 44 3 0 13.9913384749275 9.99564679373987 14.6892592823133
139 45 3 0 0.115769386030734 2.21976500511169 12.7217393112369
140 45 5 0 1.07576938603073 2.21976500511169 12.7217393112369
141 45 3 0 1.31576938603073 1.28976500511169 12.7217393112369
142 46 3 0 3.80835846226662 5.16143563011661 12.0071639958769
143 46 5 0 4.76835846226662 5.16143563011661 12.0071639958769
144 46 3 0 5.00835846226662 4.23143563011661 12.0071639958769
145 47 3 0 13.7510459536873 7.84803490079008 2.4369539343752
146 47 5 0 14.7110459536873 7.84803490079008 2.4369539343752
147 47 3 0 14.9510459536873 6.91803490079008 2.4369539343752
148 48 3 0 6.06243690636009 5.61973807675764 2.05150379100814
149 48 5 0 7.02243690636009 5.61973807675764 2.05150379100814
150 48 3 0 7.26243690636009 4.68973807675764 2.05150379100814
151 49 3 0 12.1710498227924 7.83741210279055 11.4098742033821
152 49 5 0 13.1310498227924 7.83741210279055 11.4098742033821
153 49 3 0 13.3710498227924 6.90741210279055 11.4098742033821
154 50 3 0 11.253526730435 13.9142568692937 1.3534484594129
155 50 5 0 12.213526730435 13.9142568692937 1.3534484594129
156 50 3 0 12.453526730435 12.9842568692938 1.3534484594129
157 51 3 0 8.4260562881548 2.50921451178379 11.5265174664091
158 51 5 0 9.3860562881548 2.50921451178379 11.5265174664091
159 51 3 0 9.6260562881548 1.57921451178379 11.5265174664091
160 52 3 0 9.16444193964824 5.51729743526317 11.713790682843
161 52 5 0 10.1244419396482 5.51729743526317 11.713790682843
162 52 3 0 10.3644419396482 4.58729743526317 11.713790682843
163 53 3 0 13.9394444161747 15.1253741273563 1.78964929073118
164 53 5 0 14.8994444161747 15.1253741273563 1.78964929073118
165 53 3 0 15.1394444161747 14.1953741273563 1.78964929073118
166 54 3 0 3.73824477472343 12.0221038318146 6.01873714593239
167 54 5 0 4.69824477472343 12.0221038318146 6.01873714593239
168 54 3 0 4.93824477472343 11.0921038318146 6.01873714593239
169 55 3 0 13.8246421159431 13.5182501274999 12.0756507874466
170 55 5 0 14.7846421159431 13.5182501274999 12.0756507874466
171 55 3 0 15.0246421159431 12.5882501274999 12.0756507874466
172 56 3 0 6.92984181267209 8.9760698230844 6.58080099150538
173 56 5 0 7.88984181267209 8.9760698230844 6.58080099150538
174 56 3 0 8.12984181267209 8.0460698230844 6.58080099150538
175 57 3 0 6.85306479848921 14.1600610028859 4.21821268158965
176 57 5 0 7.81306479848921 14.1600610028859 4.21821268158965
177 57 3 0 8.05306479848921 13.2300610028859 4.21821268158965
178 58 3 0 9.65962507805787 5.1556349724438 12.951555516338
179 58 5 0 10.6196250780579 5.1556349724438 12.951555516338
180 58 3 0 10.8596250780579 4.2256349724438 12.951555516338
181 59 3 0 13.8629506474547 1.3048225854896 10.2212036610581
182 59 5 0 14.8229506474547 1.3048225854896 10.2212036610581
183 59 3 0 15.0629506474547 0.374822585489601 10.2212036610581
184 60 3 0 6.62413679922 15.0248280020338 7.89285559323616
185 60 5 0 7.58413679922 15.0248280020338 7.89285559323616
186 60 3 0 7.82413679922 14.0948280020338 7.89285559323616
187 61 3 0 1.33159750767052 3.17052735173143 11.3962004275527
188 61 5 0 2.29159750767052 3.17052735173143 11.3962004275527
189 61 3 0 2.53159750767052 2.24052735173143 11.3962004275527
190 62 3 0 7.62483997081406 10.2596805761009 9.24898319528438
191 62 5 0 8.58483997081406 10.2596805761009 9.24898319528438
192 62 3 0 8.82483997081406 9.32968057610095 9.24898319528438
193 63 3 0 1.09974705308676 1.32452710921876 11.9422338623554
194 63 5 0 2.05974705308676 1.32452710921876 11.9422338623554
195 63 3 0 2.29974705308676 0.394527109218761 11.9422338623554
196 64 3 0 9.82518294520676 3.92874555354007 0.876054293476045
197 64 5 0 10.7851829452068 3.92874555354007 0.876054293476045
198 64 3 0 11.0251829452068 2.99874555354007 0.876054293476045
199 65 3 0 4.46605149700306 6.95167745853774 13.418229483068
200 65 5 0 5.42605149700306 6.95167745853774 13.418229483068
201 65 3 0 5.66605149700306 6.02167745853774 13.418229483068
202 66 3 0 -0.37495910611935 10.1432879145164 11.3883984368294
203 66 5 0 0.58504089388065 10.1432879145164 11.3883984368294
204 66 3 0 0.82504089388065 9.21328791451641 11.3883984368294
205 67 3 0 10.0692193668522 4.15908821200952 14.2433868173975
206 67 5 0 11.0292193668522 4.15908821200952 14.2433868173975
207 67 3 0 11.2692193668522 3.22908821200952 14.2433868173975
208 68 3 0 10.3179327333067 3.54262198013254 2.68591746571474
209 68 5 0 11.2779327333067 3.54262198013254 2.68591746571474
210 68 3 0 11.5179327333067 2.61262198013253 2.68591746571474
211 69 3 0 5.63185066843405 5.1757964146696 4.8638585396111
212 69 5 0 6.59185066843405 5.1757964146696 4.8638585396111
213 69 3 0 6.83185066843405 4.2457964146696 4.8638585396111
214 70 3 0 2.84346277752891 6.58070051152259 0.47568267211318
215 70 5 0 3.80346277752891 6.58070051152259 0.47568267211318
216 70 3 0 4.04346277752891 5.65070051152259 0.47568267211318
217 71 3 0 3.65626010505483 10.5267747786734 8.25583817786537
218 71 5 0 4.61626010505483 10.5267747786734 8.25583817786537
219 71 3 0 4.85626010505483 9.59677477867343 8.25583817786537
220 72 3 0 8.94968276188709 10.7583795387205 10.9661038883496
221 72 5 0 9.90968276188709 10.7583795387205 10.9661038883496
222 72 3 0 10.1496827618871 9.82837953872047 10.9661038883496
223 73 3 0 7.81380087995902 9.84267886070535 9.99789910158142
224 73 5 0 8.77380087995902 9.84267886070535 9.99789910158142
225 73 3 0 9.01380087995902 8.91267886070535 9.99789910158142
226 74 3 0 -0.164310431135818 0.435997739378363 4.31361279333942
227 74 5 0 0.795689568864182 0.435997739378363 4.31361279333942
228 74 3 0 1.03568956886418 -0.494002260621637 4.31361279333942
229 75 3 0 10.024333852781 2.41625736159272 10.33605635399
230 75 5 0 10.984333852781 2.41625736159272 10.33605635399
231 75 3 0 11.224333852781 1.48625736159272 10.33605635399
232 76 3 0 9.7153175999131 14.5052663392294 12.0733363064937
233 76 5 0 10.6753175999131 14.5052663392294 12.0733363064937
234 76 3 0 10.9153175999131 13.5752663392294 12.0733363064937
235 77 3 0 0.343914983533323 1.15430337883532 14.5370600384194
236 77 5 0 1.30391498353332 1.15430337883532 14.5370600384194
237 77 3 0 1.54391498353332 0.22430337883532 14.5370600384194
238 78 3 0 12.4894994711224 0.461999925728887 4.16095940745436
239 78 5 0 13.4494994711224 0.461999925728887 4.16095940745436
240 78 3 0 13.6894994711224 -0.468000074271113 4.16095940745436
241 79 3 0 0.445204995777458 5.23451716098003 14.0720500785392
242 79 5 0 1.40520499577746 5.23451716098003 14.0720500785392
243 79 3 0 1.64520499577746 4.30451716098003 14.0720500785392
244 80 3 0 8.16479249901138 7.68999910023063 5.55987919913605
245 80 5 0 9.12479249901138 7.68999910023063 5.55987919913605
246 80 3 0 9.36479249901138 6.75999910023063 5.55987919913605
247 81 3 0 2.60027015509084 1.88124227378517 8.67892708978616
248 81 5 0 3.56027015509084 1.88124227378517 8.67892708978616
249 81 3 0 3.80027015509084 0.951242273785174 8.67892708978616
250 82 3 0 13.8184430454578 10.3723060262296 10.5503105081152
251 82 5 0 14.7784430454578 10.3723060262296 10.5503105081152
252 82 3 0 15.0184430454578 9.44230602622964 10.5503105081152
253 83 3 0 11.2437949741445 14.5553091405332 6.47386213880964
254 83 5 0 12.2037949741445 14.5553091405332 6.47386213880964
255 83 3 0 12.4437949741445 13.6253091405332 6.47386213880964
256 84 3 0 3.35583342399448 11.7380750905164 0.164758268510923
257 84 5 0 4.31583342399448 11.7380750905164 0.164758268510923
258 84 3 0 4.55583342399448 10.8080750905164 0.164758268510923
259 85 3 0 6.90044539209455 4.45101970847696 9.18016479816288
260 85 5 0 7.86044539209455 4.45101970847696 9.18016479816288
261 85 3 0 8.10044539209455 3.52101970847696 9.18016479816288
262 86 3 0 7.96095122510567 8.36305331712589 14.6788037451915
263 86 5 0 8.92095122510567 8.36305331712589 14.6788037451915
264 86 3 0 9.16095122510567 7.43305331712589 14.6788037451915
265 87 3 0 13.2356363993324 11.715164153548 1.25640643760562
266 87 5 0 14.1956363993324 11.715164153548 1.25640643760562
267 87 3 0 14.4356363993324 10.785164153548 1.25640643760562
268 88 3 0 -0.684363919571042 11.2634349071328 12.4311416759156
269 88 5 0 0.275636080428958 11.2634349071328 12.4311416759156
270 88 3 0 0.515636080428958 10.3334349071328 12.4311416759156
271 89 3 0 3.50590657719411 1.21371207334101 10.9331589925569
272 89 5 0 4.46590657719411 1.21371207334101 10.9331589925569
273 89 3 0 4.70590657719411 0.283712073341012 10.9331589925569
274 90 3 0 0.341259781708941 10.037906283224 0.394793869927526
275 90 5 0 1.30125978170894 10.037906283224 0.394793869927526
276 90 3 0 1.54125978170894 9.107906283224 0.394793869927526
277 91 3 0 10.7788970733248 9.90864856675267 7.81719135353342
278 91 5 0 11.7388970733248 9.90864856675267 7.81719135353342
279 91 3 0 11.9788970733248 8.97864856675267 7.81719135353342
280 92 3 0 12.5298402858619 0.488848342038691 7.09455783711746
281 92 5 0 13.4898402858619 0.488848342038691 7.09455783711746
282 92 3 0 13.7298402858619 -0.441151657961309 7.09455783711746
283 93 3 0 10.9255931926612 11.5316297304258 7.33584808185697
284 93 5 0 11.8855931926612 11.5316297304258 7.33584808185697
285 93 3 0 12.1255931926612 10.6016297304258 7.33584808185697
286 94 3 0 2.7509893015679 0.677097264388576 9.48117936495692
287 94 5 0 3.7109893015679 0.677097264388576 9.48117936495692
288 94 3 0 3.9509893015679 -0.252902735611424 9.48117936495692
289 95 3 0 12.9665632713307 6.50731755694374 11.4093052363023
290 95 5 0 13.9265632713307 6.50731755694374 11.4093052363023
291 95 3 0 14.1665632713307 5.57731755694374 11.4093052363023
292 96 3 0 13.4914284052514 4.20811878325418 4.46100192493759
293 96 5 0 14.4514284052514 4.20811878325418 4.46100192493759
294 96 3 0 14.6914284052514 3.27811878325418 4.46100192493759
295 97 3 0 12.7736596127227 15.0700348538253 3.21187814581208
296 97 5 0 13.7336596127227 15.0700348538253 3.21187814581208
297 97 3 0 13.9736596127227 14.1400348538253 3.21187814581208
298 98 3 0 13.7214225057699 8.55674436473288 11.1280005960725
299 98 5 0 14.6814225057699 8.55674436473288 11.1280005960725
300 98 3 0 14.9214225057699 7.62674436473288 11.1280005960725
301 99 3 0 3.06831990296021 7.54312223562971 9.54872516915202
302 99 5 0 4.02831990296021 7.54312223562971 9.54872516915202
303 99 3 0 4.26831990296021 6.61312223562971 9.54872516915202
304 100 3 0 4.5265172088705 13.9026313826349 10.7206112786662
305 100 5 0 5.4865172088705 13.9026313826349 10.7206112786662
306 100 3 0 5.7265172088705 12.9726313826349 10.7206112786662
307 101 3 0 6.63117490869015 10.3590955950227 5.62618600437418
308 101 5 0 7.59117490869015 10.3590955950227 5.62618600437418
309 101 3 0 7.83117490869015 9.42909559502266 5.62618600437418
310 102 3 0 11.8122829198558 7.27527791908011 3.6838319466915
311 102 5 0 12.7722829198558 7.27527791908011 3.6838319466915
312 102 3 0 13.0122829198558 6.34527791908011 3.6838319466915
313 103 3 0 -0.546921093044803 6.84455412364565 0.194288219790906
314 103 5 0 0.413078906955197 6.84455412364565 0.194288219790906
315 103 3 0 0.653078906955197 5.91455412364565 0.194288219790906
316 104 3 0 11.3735922651552 12.8600586838461 4.7289582027588
317 104 5 0 12.3335922651552 12.8600586838461 4.7289582027588
318 104 3 0 12.5735922651552 11.9300586838461 4.7289582027588
319 105 3 0 11.2332276608516 1.86420091818087 1.37180280522443
320 105 5 0 12.1932276608516 1.86420091818087 1.37180280522443
321 105 3 0 12.4332276608516 0.934200918180868 1.37180280522443
322 106 3 0 9.05360078366473 11.8755110264197 2.49621393391863
323 106 5 0 10.0136007836647 11.8755110264197 2.49621393391863
324 106 3 0 10.2536007836647 10.9455110264197 2.49621393391863
325 107 3 0 8.01522576293908 15.1994889513031 9.08765623695217
326 107 5 0 8.97522576293908 15.1994889513031 9.08765623695217
327 107 3 0 9.21522576293908 14.2694889513031 9.08765623695217
328 108 3 0 9.63868447157554 10.5005651786365 9.73157088970765
329 108 5 0 10.5986844715755 10.5005651786365 9.73157088970765
330 108 3 0 10.8386844715755 9.57056517863646 9.73157088970765
331 109 3 0 13.7532532300986 14.0180745003186 7.51540836179629
332 109 5 0 14.7132532300986 14.0180745003186 7.51540836179629
333 109 3 0 14.9532532300986 13.0880745003186 7.51540836179629
334 110 3 0 2.85361426460557 9.24634587293491 8.28345341957174
335 110 5 0 3.81361426460557 9.24634587293491 8.28345341957174
336 110 3 0 4.05361426460557 8.31634587293491 8.28345341957174
337 111 3 0 13.3515199895203 10.0862356768362 6.52115394361317
338 111 5 0 14.3115199895203 10.0862356768362 6.52115394361317
339 111 3 0 14.5515199895203 9.15623567683622 6.52115394361317
340 112 3 0 11.6887229243014 1.39371448819526 12.767088470282
341 112 5 0 12.6487229243014 1.39371448819526 12.767088470282
342 112 3 0 12.8887229243014 0.463714488195255 12.767088470282
343 113 3 0 13.2723560468014 14.7722719625477 3.24823115835898
344 113 5 0 14.2323560468014 14.7722719625477 3.24823115835898
345 113 3 0 14.4723560468014 13.8422719625477 3.24823115835898
346 114 3 0 11.2238135332894 0.392347958814353 4.90349468425848
347 114 5 0 12.1838135332894 0.392347958814353 4.90349468425848
348 114 3 0 12.4238135332894 -0.537652041185647 4.90349468425848
349 115 3 0 -0.0105084451194852 7.53778086783364 1.89929397543892
350 115 5 0 0.949491554880515 7.53778086783364 1.89929397543892
351 115 3 0 1.18949155488051 6.60778086783364 1.89929397543892
352 116 3 0 1.27525256990455 5.4764503570646 13.0618634750135
353 116 5 0 2.23525256990455 5.4764503570646 13.0618634750135
354 116 3 0 2.47525256990455 4.5464503570646 13.0618634750135
355 117 3 0 5.23436262781732 9.68330865417607 8.89016021741554
356 117 5 0 6.19436262781732 9.68330865417607 8.89016021741554
357 117 3 0 6.43436262781732 8.75330865417607 8.89016021741554
358 118 3 0 11.2392206378002 3.42064939480275 12.4040985654574
359 118 5 0 12.1992206378002 3.42064939480275 12.4040985654574
360 118 3 0 12.4392206378002 2.49064939480275 12.4040985654574
361 119 3 0 10.4674086060561 6.31911149405874 8.0818794365041
362 119 5 0 11.4274086060561 6.31911149405874 8.0818794365041
363 119 3 0 11.6674086060561 5.38911149405874 8.0818794365041
364 120 3 0 3.07838334862143 11.9425180383865 8.53069180157036
365 120 5 0 4.03838334862143 11.9425180383865 8.53069180157036
366 120 3 0 4.27838334862143 11.0125180383865 8.53069180157036
367 121 3 0 8.9992943491973 11.4177302659396 13.6616388126276
368 121 5 0 9.9592943491973 11.4177302659396 13.6616388126276
369 121 3 0 10.1992943491973 10.4877302659396 13.6616388126276
370 122 3 0 3.19646118834615 10.8220106274262 5.84711726987734
371 122 5 0 4.15646118834615 10.8220106274262 5.84711726987734
372 122 3 0 4.39646118834615 9.89201062742621 5.84711726987734
373 123 3 0 11.6004204509966 1.56986334052868 11.8528917990625
374 123 5 0 12.5604204509966 1.56986334052868 11.8528917990625
375 123 3 0 12.8004204509966 0.639863340528682 11.8528917990625
376 124 3 0 2.6382049026154 0.393678715163842 9.30449777282774
377 124 5 0 3.5982049026154 0.393678715163842 9.30449777282774
378 124 3 0 3.8382049026154 -0.536321284836158 9.30449777282774
379 125 3 0 6.47791571376845 14.002059610039 5.6494615226984
380 125 5 0 7.43791571376845 14.002059610039 5.6494615226984
381 125 3 0 7.67791571376845 13.072059610039 5.6494615226984
382 126 3 0 4.5950665643625 9.66582874692045 9.76660973159596
383 126 5 0 5.5550665643625 9.66582874692045 9.76660973159596
384 126 3 0 5.7950665643625 8.73582874692045 9.76660973159596
385 127 3 0 4.60729599159211 12.3926931158081 2.51783568179235
386 127 5 0 5.56729599159211 12.3926931158081 2.51783568179235
387 127 3 0 5.80729599159211 11.4626931158081 2.51783568179235
388 128 3 0 9.39736375861801 5.73666323366575 12.6043289224617
389 128 5 0 10.357363758618 5.73666323366575 12.6043289224617
390 128 3 0 10.597363758618 4.80666323366575 12.6043289224617
391 129 3 0 0.485929090501741 1.93111431127414 12.1984628797509
392 129 5 0 1.44592909050174 1.93111431127414 12.1984628797509
393 129 3 0 1.68592909050174 1.00111431127414 12.1984628797509
394 130 3 0 13.1321390932146 4.85262782819569 3.57541386270896
395 130 5 0 14.0921390932146 4.85262782819569 3.57541386270896
396 130 3 0 14.3321390932146 3.92262782819569 3.57541386270896
397 131 3 0 3.98719669363461 12.8157841860689 0.959184014936909
398 131 5 0 4.94719669363461 12.8157841860689 0.959184014936909
399 131 3 0 5.18719669363461 11.8857841860689 0.959184014936909
400 132 3 0 7.5070600553602 13.7881879396178 12.9168227361515
401 132 5 0 8.4670600553602 13.7881879396178 12.9168227361515
402 132 3 0 8.7070600553602 12.8581879396178 12.9168227361515
403 133 3 0 -0.483307002140209 7.07332540228032 4.33657786343247
404 133 5 0 0.476692997859791 7.07332540228032 4.33657786343247
405 133 3 0 0.716692997859791 6.14332540228032 4.33657786343247
406 134 3 0 6.91642645440996 1.67775640305132 14.2662477109116
407 134 5 0 7.87642645440996 1.67775640305132 14.2662477109116
408 134 3 0 8.11642645440996 0.747756403051317 14.2662477109116
409 135 3 0 10.7215266166907 11.4525872414839 9.52214479562826
410 135 5 0 11.6815266166907 11.4525872414839 9.52214479562826
411 135 3 0 11.9215266166907 10.5225872414839 9.52214479562826
412 136 3 0 6.16771822024137 5.18398083670996 3.09310381184332
413 136 5 0 7.12771822024137 5.18398083670996 3.09310381184332
414 136 3 0 7.36771822024137 4.25398083670996 3.09310381184332
415 137 3 0 10.258159471415 9.11609057028778 7.51067685429007
416 137 5 0 11.218159471415 9.11609057028778 7.51067685429007
417 137 3 0 11.458159471415 8.18609057028778 7.51067685429007
418 138 3 0 5.58707874661312 6.2929939622432 12.4818538594991
419 138 5 0 6.54707874661312 6.2929939622432 12.4818538594991
420 138 3 0 6.78707874661312 5.3629939622432 12.4818538594991
421 139 3 0 1.26640916612931 14.5645458581299 9.06350794248283
422 139 5 0 2.22640916612931 14.5645458581299 9.06350794248283
423 139 3 0 2.46640916612931 13.6345458581299 9.06350794248283
424 140 3 0 0.232649092068896 2.79595372657292 14.0344516478945
425 140 5 0 1.1926490920689 2.79595372657292 14.0344516478945
426 140 3 0 1.4326490920689 1.86595372657292 14.0344516478945
427 141 3 0 14.0690254994854 13.0839716961514 1.39989640912972
428 141 5 0 15.0290254994854 13.0839716961514 1.39989640912972
429 141 3 0 15.2690254994854 12.1539716961514 1.39989640912972
430 142 3 0 7.72187957234681 11.8169514152128 4.14439894258976
431 142 5 0 8.68187957234681 11.8169514152128 4.14439894258976
432 142 3 0 8.92187957234681 10.8869514152128 4.14439894258976
433 143 3 0 5.31281322866678 11.1110463474784 1.9079820800107
434 143 5 0 6.27281322866678 11.1110463474784 1.9079820800107
435 143 3 0 6.51281322866678 10.1810463474784 1.9079820800107
436 144 3 0 9.58574100790545 12.9144640073087 10.2945727505721
437 144 5 0 10.5457410079055 12.9144640073087 10.2945727505721
438 144 3 0 10.7857410079055 11.9844640073087 10.2945727505721
439 145 3 0 7.65910154135898 5.45927358133718 8.38060504873283
440 145 5 0 8.61910154135898 5.45927358133718 8.38060504873283
441 145 3 0 8.85910154135898 4.52927358133718 8.38060504873283
442 146 3 0 11.8471088334639 1.83969393413514 10.362892888952
443 146 5 0 12.8071088334639 1.83969393413514 10.362892888952
444 146 3 0 13.0471088334639 0.909693934135139 10.362892888952
445 147 3 0 3.96442791723646 0.699875571709126 0.364853896899149
446 147 5 0 4.92442791723646 0.699875571709126 0.364853896899149
447 147 3 0 5.16442791723646 -0.230124428290874 0.364853896899149
448 148 3 0 3.09553363404237 7.75115646928549 14.2430800327566
449 148 5 0 4.05553363404237 7.75115646928549 14.2430800327566
450 148 3 0 4.29553363404237 6.82115646928549 14.2430800327566
451 149 3 0 7.25960932832211 7.59630549507216 11.4066410763189
452 149 5 0 8.21960932832211 7.59630549507216 11.4066410763189
453 149 3 0 8.45960932832211 6.66630549507216 11.4066410763189
454 150 3 0 11.3680491798744 8.00926261738874 9.84635551809333
455 150 5 0 12.3280491798744 8.00926261738874 9.84635551809333
456 150 3 0 12.5680491798744 7.07926261738874 9.84635551809333
457 151 3 0 2.81591638267972 14.9704628034402 10.8720383432228
458 151 5 0 3.77591638267972 14.9704628034402 10.8720383432228
459 151 3 0 4.01591638267972 14.0404628034402 10.8720383432228
460 152 3 0 8.94905153472908 10.7671939969901 1.78158134571277
461 152 5 0 9.90905153472908 10.7671939969901 1.78158134571277
462 152 3 0 10.1490515347291 9.8371939969901 1.78158134571277
463 153 3 0 1.94295137582347 13.8378923949227 7.6179449132178
464 153 5 0 2.90295137582347 13.8378923949227 7.6179449132178
465 153 3 0 3.14295137582347 12.9078923949227 7.6179449132178
466 154 3 0 1.52107669433579 15.1897082901001 1.25832031946629
467 154 5 0 2.48107669433579 15.1897082901001 1.25832031946629
468 154 3 0 2.72107669433579 14.2597082901001 1.25832031946629
469 155 3 0 7.3333483880572 7.78902342467569 8.46047886181623
470 155 5 0 8.2933483880572 7.78902342467569 8.46047886181623
471 155 3 0 8.5333483880572 6.85902342467569 8.46047886181623
472 156 3 0 11.104584439164 6.48199289728887 6.658049718244
473 156 5 0 12.064584439164 6.48199289728887 6.658049718244
474 156 3 0 12.304584439164 5.55199289728887 6.658049718244
475 157 3 0 12.9310438704863 13.891679710187 11.4846550673246