LAMMPS (29 Sep 2021 - Update 1)
# Test LAMMPS input file for single DeFDe

# Initialize simulation

clear

units real
atom_style full
boundary p p p
dielectric 1
special_bonds dreiding

bond_style harmonic
angle_style harmonic
dihedral_style harmonic
improper_style umbrella
pair_style hybrid/overlay hbond/dreiding/lj 4 9.0 11.0 90 lj/cut 8.50000

# Read data file
read_data frag5.dat
Reading data file ...
  triclinic box = (0.0000000 0.0000000 0.0000000) to (15.000000 15.000000 15.000000) with tilt (0.0000000 0.0000000 0.0000000)
  2 by 4 by 4 MPI processor grid
  reading atoms ...
  1509 atoms
  scanning bonds ...
  3 = max bonds/atom
  scanning angles ...
  3 = max angles/atom
  scanning dihedrals ...
  6 = max dihedrals/atom
  scanning impropers ...
  1 = max impropers/atom
  reading bonds ...
  1009 bonds
  reading angles ...
  513 angles
  reading dihedrals ...
  16 dihedrals
  reading impropers ...
  4 impropers
Finding 1-2 1-3 1-4 neighbors ...
  special bond factors lj:    0        0        1       
  special bond factors coul:  0        0        1       
     3 = max # of 1-2 neighbors
     4 = max # of 1-3 neighbors
     7 = max # of special neighbors
  special bonds CPU = 0.002 seconds
  read_data CPU = 0.017 seconds

# Dreiding potential information

bond_coeff 1 700 1.275
bond_coeff 2 700 1.33
bond_coeff 3 350 0.935
bond_coeff 4 350 0.99
bond_coeff 5 350 0.98

angle_coeff 1 50 120
angle_coeff 2 50 120
angle_coeff 3 50 104.51

dihedral_coeff 1 5.625 -1 2
dihedral_coeff 2 11.25 -1 2

improper_coeff 1 40 0

pair_coeff 1 1 lj/cut 0.0951 3.8983
pair_coeff 1 2 lj/cut 0.0857947550844456 3.77835472527395
pair_coeff 1 3 lj/cut 0.00308382878902186 3.52806914614779
pair_coeff 1 4 lj/cut 0.0380199947396104 3.52917391183829
pair_coeff 1 5 lj/cut 0.0953995283007206 3.64309650983885
pair_coeff 2 2 lj/cut 0.0774 3.6621
pair_coeff 2 3 lj/cut 0.00278208554864871 3.41951536039831
pair_coeff 2 4 lj/cut 0.0342998542270955 3.42058613398347
pair_coeff 2 5 lj/cut 0.0860649754545948 3.53100349192691
pair_coeff 3 3 lj/cut 1e-04 3.193
pair_coeff 3 4 lj/cut 0.0012328828005938 3.19399984345648
pair_coeff 3 5 lj/cut 0.0030935416596516 3.29710294046152
pair_coeff 4 4 lj/cut 0.0152 3.195
pair_coeff 4 5 lj/cut 0.0381397430510485 3.29813538230316
pair_coeff 5 5 lj/cut 0.0957 3.4046
pair_coeff 2 2 hbond/dreiding/lj 3 j 9.50 2.75 4 9.0 11.0 90
pair_coeff 2 5 hbond/dreiding/lj 3 i 9.50 2.75 4 9.0 11.0 90
pair_coeff 2 5 hbond/dreiding/lj 3 j 9.50 2.75 4 9.0 11.0 90
pair_coeff 5 5 hbond/dreiding/lj 3 j 9.50 2.75 4 9.0 11.0 90

neighbor 2 bin
neigh_modify every 2 one 10000

# Gemoetric relaxation
fix 1 all box/relax iso 1.0 vmax 0.001
minimize 1.0e-4 1.0e-6 10000 10000
WARNING: Using 'neigh_modify every 1 delay 0 check yes' setting during minimization (../min.cpp:188)
Neighbor list info ...
  update every 1 steps, delay 0 steps, check yes
  max neighbors/atom: 10000, page size: 100000
  master list distance cutoff = 13
  ghost atom cutoff = 13
  binsize = 6.5, bins = 3 3 3
  3 neighbor lists, perpetual/occasional/extra = 3 0 0
  (1) pair hbond/dreiding/lj, perpetual, skip from (3)
      attributes: full, newton on
      pair build: skip
      stencil: none
      bin: none
  (2) pair lj/cut, perpetual, half/full from (3)
      attributes: half, newton on
      pair build: halffull/newton
      stencil: none
      bin: none
  (3) neighbor class addition, perpetual
      attributes: full, newton on
      pair build: full/bin
      stencil: full/bin/3d
      bin: standard
Per MPI rank memory allocation (min/avg/max) = 12.47 | 12.80 | 13.40 Mbytes
Step Temp E_pair E_mol TotEng Press Volume 
       0            0 2.369994e+18     320.7238 2.369994e+18 1.9260057e+20         3375 
    5322            0   -1075.0934     35.00683   -1040.0865    101.00864    38614.337 
Loop time of 4.51197 on 32 procs for 5322 steps with 1509 atoms

100.0% CPU use with 32 MPI tasks x no OpenMP threads

Minimization stats:
  Stopping criterion = energy tolerance
  Energy initial, next-to-last, final = 
    2.36999395516627e+18  -1039.48683584994   -1039.5726006966
  Force two-norm initial, final = 4.3152087e+20 102.90786
  Force max component initial, final = 2.1554137e+20 74.982225
  Final line search alpha, max atom move = 1.5610066e-05 0.0011704775
  Iterations, force evaluations = 5322 5326

MPI task timing breakdown:
Section |  min time  |  avg time  |  max time  |%varavg| %total
---------------------------------------------------------------
Pair    | 1.4805     | 2.5228     | 3.8088     |  36.4 | 55.91
Bond    | 0.0067526  | 0.011075   | 0.023238   |   2.8 |  0.25
Neigh   | 0.091376   | 0.091687   | 0.09191    |   0.1 |  2.03
Comm    | 0.25906    | 1.5462     | 2.591      |  46.6 | 34.27
Output  | 0          | 0          | 0          |   0.0 |  0.00
Modify  | 0          | 0          | 0          |   0.0 |  0.00
Other   |            | 0.3403     |            |       |  7.54

Nlocal:        47.1562 ave          69 max          30 min
Histogram: 3 3 4 4 4 6 3 3 0 2
Nghost:        1919.06 ave        1945 max        1895 min
Histogram: 2 2 4 2 5 8 2 3 2 2
Neighs:        4777.31 ave        7865 max        2740 min
Histogram: 2 6 3 5 5 7 1 1 1 1

Total # of neighbors = 152874
Ave neighs/atom = 101.30815
Ave special neighs/atom = 2.0172300
Neighbor list builds = 97
Dangerous builds = 0

# MD simulation
velocity all create 300.0 12345 rot yes dist gaussian
timestep 1.0
fix 2 all nvt temp 300.0 300.0 1

# Compute interaction energy
group WAT molecule <> 2 501
1500 atoms in group WAT
group MOL molecule 1
9 atoms in group MOL

compute w WAT group/group MOL pair yes
fix 3 all ave/time 10 5 100 c_w file outa

# Outputs
thermo 100 # Output thermodynamic data every nth step
#dump mf1 all xyz 10000 mol_*.xyz

# Run
run 1000000
Neighbor list info ...
  update every 2 steps, delay 10 steps, check yes
  max neighbors/atom: 10000, page size: 100000
  master list distance cutoff = 13
  ghost atom cutoff = 13
  binsize = 6.5, bins = 6 6 6
  4 neighbor lists, perpetual/occasional/extra = 3 1 0
  (1) pair hbond/dreiding/lj, perpetual, skip from (4)
      attributes: full, newton on
      pair build: skip
      stencil: none
      bin: none
  (2) pair lj/cut, perpetual, half/full from (4)
      attributes: half, newton on
      pair build: halffull/newton
      stencil: none
      bin: none
  (3) compute group/group, occasional, copy from (2)
      attributes: half, newton on
      pair build: copy
      stencil: none
      bin: none
  (4) neighbor class addition, perpetual
      attributes: full, newton on
      pair build: full/bin
      stencil: full/bin/3d
      bin: standard
Per MPI rank memory allocation (min/avg/max) = 11.31 | 11.36 | 11.86 Mbytes
Step Temp E_pair E_mol TotEng Press Volume 
    5322          300   -1075.0934     35.00683    308.43194    1697.4066    38614.337 
    5400    308.40625   -1102.7138    229.52526    513.11653    1892.0723    38614.337 
    5500    301.48706   -1090.1012    193.06018    458.16186    1229.4164    38614.337 
    5600    298.50369    -1085.755    169.29116    425.32864    824.65711    38614.337 
    5700    297.24066   -1113.8442    194.11672    416.38758    760.06062    38614.337 
    5800    293.29733   -1131.3138    206.48771    393.56345    53.342424    38614.337 
    5900    294.95861   -1103.1977    186.47343    409.13288   -77.542281    38614.337 
    6000    308.86929    -1130.051    206.40497    464.74042   -119.30644    38614.337 
    6100    301.41811   -1081.5872    196.02925    469.33503   -286.60797    38614.337 
    6200    303.54725   -1079.7417    196.88085    481.60278   -495.15931    38614.337 
    6300     308.3058   -1064.0431    206.28157    528.09201   -377.51999    38614.337 
    6400    298.04056    -1052.251    195.60526    483.06495   -227.86365    38614.337 
    6500    300.83353   -1121.3337    205.08807    436.01958   -190.48977    38614.337 
    6600     300.9352    -1091.736    211.36928    472.35554    350.31778    38614.337 
    6700    293.14006   -1096.0409     203.1607    424.80236    191.60422    38614.337 
    6800     294.4539   -1068.0799    211.72968    467.23821    505.69144    38614.337 
    6900    293.75966    -1081.287    205.72058    444.90132    687.44571    38614.337 
    7000    297.26562   -1092.8916    214.30158     457.6373    410.85338    38614.337 
    7100     308.7847   -1096.9573    229.06963    520.11855     697.9564    38614.337 
    7200     296.6203   -1082.7283    224.62178    475.22001    245.72291    38614.337 
    7300    293.45286   -1051.3287    229.48601    497.24602   -9.2695781    38614.337 
    7400    293.96191   -1057.5956    227.04969      490.831    457.68274    38614.337 
    7500    288.91003   -1078.0958    222.28111    442.85369   -38.434518    38614.337 
    7600    304.82514   -1106.8606    223.59216    486.93937    47.145441    38614.337 
    7700    291.64567   -1104.8977    217.21164    423.27914   -193.65676    38614.337 
    7800    292.69589   -1094.4434    245.20102    466.44362    180.95588    38614.337 
    7900    297.88875   -1064.6234    235.27659    509.68142    44.894681    38614.337 
    8000    309.64384   -1127.4697     219.9977    484.39616     309.6055    38614.337 
    8100    289.92421   -1099.7719    227.35438    430.80968    139.45726    38614.337 
    8200    291.04681    -1091.316    231.44879    448.40608    415.17794    38614.337 
    8300    298.62157   -1110.5837    233.32179     465.0604   -426.38504    38614.337 
    8400    305.60175   -1088.9638     244.1182    528.85305    124.30602    38614.337 
    8500    293.89908   -1091.3312    235.13771      464.901    262.30424    38614.337 
    8600    306.15114   -1078.4382    237.96109    535.69112    329.50964    38614.337 
    8700    308.04286   -1102.7749     235.0779    516.97465    194.54196    38614.337 
    8800     297.9254   -1092.5668    226.04121    472.66742    118.03392    38614.337 
    8900    293.76239   -1060.3126     226.3296    486.49705    343.33986    38614.337 
    9000    287.91815   -1091.6574    242.03129    444.58372    304.53625    38614.337 
    9100    305.95865   -1082.1259     240.7604    533.93752    253.17359    38614.337 
    9200    298.26969   -1082.5826    237.04938    495.20744    -51.87414    38614.337 
    9300    299.41299   -1033.9218    221.45152    533.40957    354.30474    38614.337 
    9400    295.33103   -1046.9872    244.39518    524.93913   -33.698006    38614.337 
    9500    291.50141   -1036.4185    243.98103     517.8793     86.09991    38614.337 
    9600     299.2025   -1047.6583    231.98244    529.25782   -173.42717    38614.337 
    9700    296.54529   -1103.2896    245.11472    474.81449    75.808362    38614.337 
    9800    305.41617   -1122.7686    239.63263     489.7285    167.74718    38614.337 
    9900    307.29043   -1143.7084    246.96596    484.54696    325.94309    38614.337 
   10000    303.50984   -1151.8527    231.15821    443.60091    205.87591    38614.337 
   10100    289.28043   -1137.7442    254.53602    417.12513    517.56229    38614.337 
   10200    297.45946   -1161.9022    233.46317    408.65954    608.18291    38614.337 
   10300    299.42485   -1124.5974    253.03971    474.37549    449.10721    38614.337 
   10400     301.9116   -1137.2525    244.67952    464.53828    423.14725    38614.337 
   10500    300.00323   -1150.9471    245.04061    442.62648    317.51706    38614.337 
   10600     306.0324   -1074.9114    255.26701    555.99003    311.31978    38614.337 
   10700    308.01987   -1112.9388    262.49473    534.12422     359.4032    38614.337 
   10800    293.16142   -1116.7044    251.83173    452.90595     84.79655    38614.337 
   10900    309.59427   -1127.2412    243.85525    508.25939    164.33821    38614.337 
   11000     293.6801   -1135.2821     261.9323    446.76031    390.29754    38614.337 
   11100    300.46214   -1164.8585    255.23563    440.97299     369.0239    38614.337 
   11200    294.92076   -1168.2628    259.49479    416.91897    874.87917    38614.337 
   11300    289.23014   -1100.3098    273.00929    472.80672    458.92722    38614.337 
   11400    297.75236   -1096.4853    267.42398    509.35387    733.14203    38614.337 
   11500    302.87618   -1123.9488     264.7983    502.29654    706.81699    38614.337 
   11600    302.68457   -1115.0221    278.35629    523.91995    673.97025    38614.337 
   11700    300.17434   -1151.1725    261.36136    459.49101    472.90099    38614.337 
   11800    298.94473   -1153.8089    267.42008    457.38613    491.17894    38614.337 
   11900     293.5796   -1113.4351    272.20098    478.42419    347.58512    38614.337 
   12000    305.02222    -1115.174    267.34188    523.26152    810.16809    38614.337 
   12100    298.89413   -1157.0202    274.88849    461.41582    291.40078    38614.337 
   12200    302.23275   -1151.6334    259.56237    466.48373    747.94541    38614.337 
   12300    294.45492   -1168.4331    279.51207    434.67195    273.09637    38614.337 
   12400    293.58246   -1114.3158      274.047    479.40243    330.51247    38614.337 
   12500    306.21735   -1137.9154    270.26227    508.81272    297.78726    38614.337 
   12600    300.75968   -1125.1642    265.26781    492.03687    349.83491    38614.337 
   12700    304.62444   -1144.9893    285.06262    509.37891     229.0245    38614.337 
   12800    303.34732   -1137.4668    266.55994    492.65796    166.36568    38614.337 
   12900    295.94184    -1144.625    274.93598    460.58779    373.00537    38614.337 
   13000    306.98314   -1141.1763    270.78376    509.51553    259.47528    38614.337 
   13100    296.87977   -1163.2523    275.91499    447.15558    524.69847    38614.337 
   13200     297.8171    -1160.089    282.64333    461.26056   -23.762478    38614.337 
   13300    292.59943   -1150.6179    270.91196     435.5465   -18.634177    38614.337 
   13400    293.91349   -1114.7853    266.46795    472.84192    55.910866    38614.337 
   13500    310.79322   -1122.3165     274.0829    548.80106    183.27837    38614.337 
   13600    304.15495   -1132.6608    288.93375    523.46815   -213.72679    38614.337 
   13700    297.06547   -1144.6887    275.85139    466.49023   -189.04126    38614.337 
   13800    304.26386   -1112.4376     290.8898    546.13694   -302.87169    38614.337 
   13900    299.93053   -1107.2292    278.00687    518.98386    187.91208    38614.337 
   14000    292.28987   -1121.4513    278.14248    470.55208    430.97039    38614.337 
   14100    302.08919   -1170.0723    272.89236    460.72959    374.27456    38614.337 
   14200    299.88742   -1174.8262    285.05476    458.24096    46.593841    38614.337 
   14300     314.8189   -1153.2852    274.96766    536.81277    462.13461    38614.337 
   14400    300.84612   -1153.9265    301.48788    499.88325    411.62101    38614.337 
   14500    297.66591   -1122.5053     279.9275    495.44881    488.36567    38614.337 
   14600    303.72443   -1165.8941    282.40825    481.77415    578.30909    38614.337 
   14700     303.1339   -1143.7734    297.84306    516.67523    106.30192    38614.337 
   14800    301.05443   -1183.5874    264.84253    434.51335    164.46276    38614.337 
   14900    311.59226   -1178.2451    289.87755    512.25887    287.02162    38614.337 
   15000    294.05043   -1140.9042    285.16173    466.03227    227.67212    38614.337 
   15100    291.85383   -1152.2203    277.98811    437.66879   -90.753639    38614.337 
   15200    302.11619   -1125.0494    289.22086     522.2023    603.13014    38614.337 
   15300    304.28165   -1149.2117    289.08983    507.64285    99.342834    38614.337 
   15400    291.92046   -1144.0515    305.22096    473.36993    581.06847    38614.337 
   15500    299.78493    -1145.778    292.75689     494.5306    398.34109    38614.337 
   15600    305.65849   -1114.8953     290.3339    549.39231    417.42568    38614.337 
   15700    303.43311   -1136.3928    283.75478    511.31244   -62.983929    38614.337 
   15800    293.74941   -1109.2254    279.24986     490.4461    523.59863    38614.337 
   15900    303.20714    -1133.085    295.93852    525.78827   -301.06219    38614.337 
   16000    301.01528     -1093.03    291.28079    551.33303   -6.3695849    38614.337 
   16100    304.63149   -1114.8164    280.21388    534.73483    48.267567    38614.337 
   16200    296.04982   -1140.8795    298.40874    488.29143   -90.024021    38614.337 
   16300    302.75063   -1163.5865    291.44655    488.74279   -215.28754    38614.337 
   16400    305.90459   -1122.3902    285.44915    538.11892    321.79777    38614.337 
   16500    303.82491   -1189.8449    294.65075    470.51756    533.60152    38614.337 
   16600    297.92443   -1182.7978    307.88888    464.27969     393.3641    38614.337 
   16700    299.10573   -1192.9265    276.52949    428.10163     372.7531    38614.337 
   16800    307.34641   -1188.8756    299.37387    492.03933    751.31946    38614.337 
   16900    300.31696   -1163.7092    285.68253    471.91652    932.93257    38614.337 
   17000    297.81654     -1161.59     306.4097    483.52333    801.50581    38614.337 
   17100    300.19741   -1158.6587    298.44014    489.18726    621.73049    38614.337 
   17200    303.35545   -1162.7348    301.83766    502.70425    284.31294    38614.337 
   17300    301.62388   -1114.6039    304.99066    546.20468    163.12801    38614.337 
   17400    292.99634   -1140.5951    297.45431    473.89577    214.43509    38614.337 
   17500    288.76748    -1129.443     309.6472    478.23181    444.80735    38614.337 
   17600     302.5912   -1126.9992    310.06542    543.23226    929.63404    38614.337 
   17700    300.41709   -1141.8191    301.32417    509.89834    507.48007    38614.337 
   17800    305.54229   -1173.8179    313.20992    512.82341    -87.28048    38614.337 
   17900    298.61833   -1150.8662    308.34333    499.78494   -474.68427    38614.337 
   18000    300.64121   -1143.0461     309.5522    517.90686   -473.37753    38614.337 
   18100     294.5858   -1178.3992    313.96279    459.74488   -303.19987    38614.337 
   18200    304.23535   -1174.7173     307.0142    499.85357    117.65091    38614.337 
   18300    295.26284   -1180.1028    318.13548    465.25734    26.348216    38614.337 
   18400    310.30616   -1145.1836    316.60444    566.26609    748.13244    38614.337 
   18500     296.9098   -1170.7518    307.57576    471.45179    369.66768    38614.337 
   18600    298.76158    -1175.017    318.10429    486.03902    152.70177    38614.337 
   18700    299.90108   -1191.3969    326.52939    483.20632    100.98327    38614.337 
   18800    309.43867   -1141.3788    300.80236    550.36949   -150.16514    38614.337 
   18900    309.01752   -1141.1555    304.44103    552.33828   -100.09105    38614.337 
   19000    296.96995   -1194.5633    290.64848    430.98342   -200.86776    38614.337 
   19100    288.16508   -1159.6501     328.8708    464.54046    76.314981    38614.337 
   19200    293.91767   -1173.3918    305.08113    452.86729    557.56219    38614.337 
   19300      311.135   -1215.9808    313.98476    496.57491     273.7231    38614.337 
   19400    296.28991   -1198.6384    314.41856    447.62153    897.22258    38614.337 
   19500    310.43124   -1220.5038    314.97251    489.87629    664.79299    38614.337 
   19600    303.41937   -1167.6402    296.51197    492.76047    534.98016    38614.337 
   19700    293.65752    -1244.313    305.86265    381.55833    351.13229    38614.337 
   19800    305.99452   -1222.3677    306.92615    460.02269    496.32139    38614.337 
   19900    295.94367   -1238.6968    309.65627    401.24451    180.76605    38614.337 
   20000    299.58789   -1260.9658    305.99735    391.69758   -0.4175242    38614.337 
   20100    296.63882   -1203.6257    293.94339    423.72749   -55.290886    38614.337 
   20200    297.47515   -1236.5755    310.73164    411.32523    231.65788    38614.337 
   20300    301.99556   -1197.7654    315.56186    475.28513    193.45974    38614.337 
   20400    288.07546   -1247.1817    303.04108    350.77626   -476.18605    38614.337 
   20500    306.24776   -1215.6454    318.22666    479.18382    199.69443    38614.337 
   20600    307.60794   -1254.2209    299.85083    428.34658    53.053641    38614.337 
   20700    303.02427   -1235.0611    310.82849    437.88017    192.64772    38614.337 
   20800    294.77917   -1212.4494    309.88258    422.48371    359.56186    38614.337 
   20900    297.90817   -1206.9508    321.67354    453.83832    18.138359    38614.337 
   21000    309.67815   -1189.8341    315.08047    517.26872    59.650392    38614.337 
   21100    297.69455   -1112.1156    313.33806    539.37779    532.25618    38614.337 
   21200    296.25246   -1176.3952    310.37961    465.65745    526.71819    38614.337 
   21300    296.62328   -1138.1861    332.77819      527.932    832.08172    38614.337 
   21400    298.50311   -1139.2406    331.57702    534.12624      524.036    38614.337 
   21500    294.37997   -1173.3996     327.7667     477.6232    338.91994    38614.337 
   21600    293.89466   -1210.6767    322.64303    433.04093   -76.021645    38614.337 
   21700    289.97609   -1190.0941    314.06176      427.428   -6.5333589    38614.337 
   21800     302.1885   -1174.6423    317.08048    500.79408     81.55501    38614.337 
   21900    308.14437   -1193.1922    305.08717    497.02287   -351.49626    38614.337 
   22000    303.88592   -1182.5552     328.6786    512.10935    77.607844    38614.337 
   22100    301.06197   -1223.7978    311.61832    441.11259    248.95205    38614.337 
   22200    290.86042   -1221.7689    334.72491    420.39154   -255.54548    38614.337 
   22300    299.73943    -1210.298    312.92838    449.97763   -288.38867    38614.337 
   22400    313.81634   -1232.5748    310.01736    488.06629   -198.70471    38614.337 
   22500    312.71946   -1182.6213    310.95141    534.02334   -402.47324    38614.337 
   22600    303.41684   -1227.7171    340.44438    476.60467    -598.3646    38614.337 
   22700     300.0422   -1220.2148    330.72492    459.21824   -105.06895    38614.337 
   22800    293.56206   -1230.9305    310.91053    399.55951   -204.04842    38614.337 
   22900    305.37583   -1200.3556    350.61028    522.93784   -5.0760797    38614.337 
   23000    310.54615   -1190.3112    341.32798    546.94087    186.16328    38614.337 
   23100    298.21075   -1210.3388    332.31285    462.44976    576.79313    38614.337 
   23200    302.48938   -1184.8081     352.4569    527.35716    1026.8734    38614.337 
   23300    301.49596   -1188.6918    331.81313    498.36429     1085.077    38614.337 
   23400    297.76808   -1232.6765    314.48461    420.29399    395.67454    38614.337 
   23500    303.69414   -1246.7008    325.10306    443.52614    499.10912    38614.337 
   23600    304.21191   -1206.1923    348.98332    510.24233    601.10783    38614.337 
   23700    300.28487   -1218.9616    320.18207    451.01941   -63.373673    38614.337 
   23800    311.12536     -1246.71    315.61158    467.42924   -430.36511    38614.337 
   23900    304.05687   -1208.6573    343.16961    501.26659   -167.50679    38614.337 
   24000    298.91802   -1184.6404    343.89656    502.91103    142.76168    38614.337 
   24100    311.43291   -1189.3101    349.64731    560.24731    530.52633    38614.337 
   24200    308.72025   -1207.8713    329.40425    509.24951    458.24248    38614.337 
   24300    290.64762   -1222.1124    321.78049    406.14705    289.76444    38614.337 
   24400    299.06977   -1218.4998    323.22114    449.05833    395.68453    38614.337 
   24500    303.30664   -1235.8737    332.52403    460.03235    18.556345    38614.337 
   24600    293.33085   -1237.1876    341.80014    423.15282     178.4961    38614.337 
   24700    294.66381   -1217.2645    339.23387    446.50133    304.13591    38614.337 
   24800    299.20227   -1239.3657    323.40261    428.96955    482.80147    38614.337 
   24900    291.58987   -1218.4967    343.45044    435.66817    520.55806    38614.337 
   25000    302.80639    -1238.427    330.47548    453.18181    132.98895    38614.337 
   25100    307.36749   -1255.9072    349.34858    475.07722    -339.4757    38614.337 
   25200    295.37165   -1203.0206    340.50756     465.2007    4.4245098    38614.337 
   25300     303.2328   -1234.6356    337.93452    466.34898   -223.77458    38614.337 
   25400    295.73948   -1237.2792    333.69957    425.78754   -201.13775    38614.337 
   25500    312.40466   -1270.8613     335.7086    469.12548    461.20826    38614.337 
   25600    300.98559   -1248.1206    336.84322    441.67135    277.93863    38614.337 
   25700    292.73683   -1265.1437     337.7298    388.45614   -48.662379    38614.337 
   25800    300.32872   -1201.7052    338.02507    486.31594   -38.133237    38614.337 
   25900    299.24258   -1224.7056    341.39827     461.8065   -99.184404    38614.337 
   26000    301.71423   -1228.2451    338.67383    466.65274     235.6033    38614.337 
   26100    307.64086    -1197.485    355.79961    541.17925   -74.894418    38614.337 
   26200    300.21626   -1222.1184     326.3571    453.72926    406.42679    38614.337 
   26300    300.23698    -1207.779    348.53544    490.34016    738.13765    38614.337 
   26400    308.68855   -1264.7173    347.74734    470.60413    512.88588    38614.337 
   26500    301.06013   -1234.4603    357.39935    476.22287    820.93166    38614.337 
   26600    292.44477   -1226.9284    341.65556     429.2844   -19.702663    38614.337 
   26700    293.57801    -1252.932    344.37044    411.08969    620.44211    38614.337 
   26800    302.83552   -1283.0519    338.74258    416.95501    491.00726    38614.337 
   26900    302.42872   -1301.4666    330.92117    388.89031    248.15329    38614.337 
   27000    306.65269   -1299.6038    346.38599    425.20489    230.46703    38614.337 
   27100    289.88842   -1286.9835    338.76179    354.84455    131.14056    38614.337 
   27200    295.43074    -1259.042    346.26685    415.20425    340.81151    38614.337 
   27300    306.87621   -1236.1126    351.10073    494.41562    318.21865    38614.337 
   27400    308.95601   -1254.4485    347.18787    481.51565    253.08067    38614.337 
   27500       301.57   -1275.8085     345.7148    425.48195    207.77613    38614.337 
   27600    298.89742   -1264.4532    363.01195    442.12101    2.8413172    38614.337 
   27700    299.34958   -1256.8015    351.05327    439.84658    698.17018    38614.337 
   27800    300.88498   -1235.9316    341.27629     457.8412    261.09581    38614.337 
   27900    304.96348   -1260.5962    377.07631    487.30975    399.77549    38614.337 
   28000    291.68773   -1264.1291    338.38123     385.4064    29.477156    38614.337 
   28100    308.65026    -1234.329    343.33275     496.4057    253.52194    38614.337 
   28200    304.32059   -1266.2571    349.47571    451.15841    255.22455    38614.337 
   28300    294.60191   -1263.0265    349.06767    410.29486     329.1332    38614.337 
   28400     301.0511   -1299.6323    357.03352     410.6444    58.552678    38614.337 
   28500    302.47851   -1234.7163    340.63192    465.57513    122.10897    38614.337 
   28600    296.31137   -1214.8792    365.19889    482.25752     139.2984    38614.337 
   28700    302.44109   -1267.7997    352.52869    444.22034   -2.2448053    38614.337 
   28800    293.05882    -1271.282    341.97568    388.01113   -12.568627    38614.337 
   28900    302.83026   -1291.2787    334.20568    404.16759   -172.30809    38614.337 
   29000    291.10568   -1268.2252    359.15608    399.46885    10.690457    38614.337 
   29100    309.30428   -1255.2291    374.29723     509.4099     197.9088    38614.337 
   29200    294.80524   -1271.5086    355.56737    409.22647    399.71596    38614.337 
   29300    300.84357   -1254.9165    360.07052    457.46441    489.87268    38614.337 
   29400      306.308   -1234.4451    342.24241    484.67064   -104.89542    38614.337 
   29500    298.31703    -1247.976    349.21515     442.1926   -36.128219    38614.337 
   29600    312.79024   -1273.1598    354.53101    487.38259   -74.979096    38614.337 
   29700    286.95627    -1287.299    349.16924    351.75638    488.75911    38614.337 
   29800    300.90326   -1264.7848    370.34995    458.14384    610.83654    38614.337 
   29900    309.33487   -1246.1368    376.70365    521.04616    430.95462    38614.337 
   30000    314.09321   -1303.9316    356.05273    463.98948    456.36416    38614.337 
   30100     300.2331   -1269.5747    346.92695    426.91856    405.37142    38614.337 
   30200    305.51578   -1257.6215     361.6446     477.3354    247.22153    38614.337 
   30300    300.61612   -1254.0556     368.1809    465.41321    320.46836    38614.337 
   30400    306.14863     -1292.34    362.70018    446.51716    198.73908    38614.337 
   30500    294.96341   -1257.1335    364.67162    433.41679    183.39761    38614.337 
   30600    287.61429   -1289.5022     358.3528    361.69454    2.8993367    38614.337 
   30700    307.39404   -1255.4829    354.59847    480.87073   -47.478694    38614.337 
   30800    294.39255   -1258.5417    336.82976    401.60066   -453.05122    38614.337 
   30900    296.36349   -1283.6622    369.02453    417.53448   -187.58728    38614.337 
   31000    305.01326   -1246.0794    373.26275    498.23666   -239.59193    38614.337 
   31100    296.95396   -1263.2854    371.28522    442.82612   -175.94204    38614.337 
   31200    300.36945   -1266.4469    360.67029    444.40258    311.60067    38614.337 
   31300    314.81587   -1285.3283    345.63348    475.42189    101.00066    38614.337 
   31400    291.22948   -1265.1522    372.95128    416.89351   -112.81366    38614.337 
   31500    280.41289   -1259.2039    372.82519    374.09447    458.72488    38614.337 
   31600    298.54652   -1304.2714    351.16768    388.88129    239.79978    38614.337 
   31700    299.71439    -1298.235    353.99217    402.99177     134.0772    38614.337 
   31800    300.33338   -1309.5999    364.29307    404.71018    401.65959    38614.337 
   31900    297.81804   -1280.8576    373.38115    431.23397    360.86321    38614.337 
   32000    314.17076   -1264.2181    354.36915    502.36794    365.91136    38614.337 
   32100    293.96433   -1289.6129    356.20513       387.98     58.55527    38614.337 
   32200    296.68018   -1303.4281    346.49448    376.66207    166.02406    38614.337 
   32300    305.70321   -1307.1372    391.32802     458.3456    379.72969    38614.337 
   32400    304.18197   -1331.8975    383.75741    419.17662    960.93946    38614.337 
   32500     302.1213    -1317.033    383.78975    424.81057    235.63356    38614.337 
   32600    301.46196    -1290.056    392.73175    457.76577    631.84298    38614.337 
   32700    293.67017   -1267.5219    373.90455    426.44813    97.827177    38614.337 
   32800    296.78734     -1244.21    368.67491    458.54231   -185.08046    38614.337 
   32900    292.94447   -1258.5529     388.0091    446.25966    178.07226    38614.337 
   33000    293.16374   -1297.3827    372.84049    393.24691    485.33724    38614.337 
   33100    293.32571   -1324.1502    349.50336     343.8703    308.06975    38614.337 
   33200    304.39584   -1294.1672    377.25268    451.36357      652.604    38614.337 
   33300    297.02651   -1332.2064    379.51718    382.46323    277.47931    38614.337 
   33400    302.21288   -1282.1883    375.00855    451.28573    297.87993    38614.337 
   33500    301.45988    -1315.881    373.27174    412.47143    52.834158    38614.337 
   33600    307.23629   -1299.3369     377.0326    458.74175    406.14463    38614.337 
   33700    303.11485   -1301.7137     387.0393    447.84549    176.43777    38614.337 
   33800     310.9911   -1293.9933    373.31362    477.24448   -351.45071    38614.337 
   33900    291.36119   -1292.1015    371.86695    389.45188    198.35264    38614.337 
   34000    287.19499   -1274.7988      371.361    387.52139    221.04737    38614.337 
   34100    299.09495    -1312.726    368.94072    400.66495    285.69646    38614.337 
   34200    302.14942   -1311.6154    378.06282    424.62768    761.63884    38614.337 
   34300    294.02478   -1326.5173    363.52175    358.66394    109.14414    38614.337 
   34400    293.05144   -1313.0198     376.3623    380.62673     816.6452    38614.337 
   34500    301.44899   -1301.0403    371.65646    425.64789    387.57976    38614.337 
   34600    305.05547   -1289.1613    361.19139    443.27315    687.92045    38614.337 
   34700    294.82901   -1254.6198    382.77733    453.43212    225.63119    38614.337 
   34800    295.51781   -1240.3494    382.04948    470.07082    313.73243    38614.337 
   34900    297.96047   -1257.1751    371.45988    453.63538    365.66046    38614.337 
   35000    310.36109   -1257.6853    396.75114    534.15807    491.83789    38614.337 
   35100    291.96398   -1246.7781    377.26302    442.88099   -220.17329    38614.337 
   35200    292.23137   -1315.2964    376.33909    374.64071    283.94622    38614.337 
   35300    305.89729   -1258.0505    382.85794    499.83457    431.10191    38614.337 
   35400    301.98033   -1248.7482    380.42093     489.0929    266.26336    38614.337 
   35500    295.03676   -1279.9274     378.0395    424.32046   -225.54847    38614.337 
   35600    298.91578   -1268.5286    387.45096    462.56724    -64.40305    38614.337 
   35700    299.19851    -1269.372    389.56053    465.10427    163.91815    38614.337 
   35800    303.01069   -1254.6708    358.19966    465.58052    107.03794    38614.337 
   35900    297.90809   -1286.8768     382.3892    434.62766    246.73526    38614.337 
   36000    291.61688   -1293.7321    394.30432    411.40808    167.49655    38614.337 
   36100    294.40118   -1267.4739    369.33005    425.20762   -428.72766    38614.337 
   36200    298.91349   -1270.6611    391.92491    464.89831   -107.43566    38614.337 
   36300    292.97335   -1230.4146    401.04685     487.5655    270.93015    38614.337 
   36400    286.41494   -1266.2528    394.28551    415.48552    477.99607    38614.337 
   36500    302.03777   -1239.1942    425.57843    544.06263    530.96143    38614.337 
   36600    294.92293   -1256.4117    409.15085    478.43582    493.10449    38614.337 
   36700    306.65321    -1259.162    396.73027    515.99334    540.45747    38614.337 
   36800    297.65657   -1241.9961    415.70245    511.69095    474.98973    38614.337 
   36900    297.79768   -1274.6616    386.07955    450.03682    137.12534    38614.337 
   37000    311.30006   -1264.1503    403.26414    538.42673    966.75716    38614.337 
   37100    307.00665   -1247.7389    406.67635    538.95125     807.5594    38614.337 
   37200    307.61829   -1282.0625    378.49678    479.19741    542.60515    38614.337 
   37300    299.84216   -1259.1786    389.95103    478.58135    334.31671    38614.337 
   37400    298.60509    -1247.449     393.6558    488.45501    239.94426    38614.337 
   37500     298.6281   -1321.3168    387.93834    408.97323    288.90055    38614.337 
   37600    289.88163   -1278.0604    403.41894    428.39433   -87.817039    38614.337 
   37700    290.57701   -1342.7958    382.69044     346.0562    306.14505    38614.337 
   37800    298.45237   -1289.4165    399.88503    452.03033    452.23236    38614.337 
   37900    303.01868   -1267.4547    407.66554    502.29846    322.02281    38614.337 
   38000     310.5637   -1289.3155    405.49208     512.1795    298.30998    38614.337 
   38100    287.88957   -1308.8574    387.53609    372.76002    37.890894    38614.337 
   38200     292.8073    -1331.507    399.84106    384.52085   -101.00484    38614.337 
   38300    304.62024   -1349.6675    380.48776    400.10699    150.39587    38614.337 
   38400    294.22135   -1300.0849    394.56918    417.02733   -133.23223    38614.337 
   38500    305.33024   -1301.4176    380.37625    451.43683      208.482    38614.337 
   38600     301.8026   -1312.0662    393.11248    437.66749   -91.341878    38614.337 
   38700    292.49698   -1297.4233    396.09128    413.45986    42.952792    38614.337 
   38800    314.46358   -1279.9642    387.77662    521.34553   -240.95708    38614.337 
   38900    303.61437   -1314.1163    401.11432     451.7633    158.74999    38614.337 
   39000    307.92545   -1315.5632    393.40634    461.98698    684.78095    38614.337 
   39100    305.25612   -1276.6015    396.96639    492.50997    423.52858    38614.337 
   39200    296.92743   -1243.2457    412.79746    504.25883    902.12999    38614.337 
   39300    307.96416    -1302.321    408.57169    490.56858    661.23843    38614.337 
   39400    294.48445   -1305.3982    418.09785    436.42541    635.36449    38614.337 
   39500    295.93378   -1344.7644    374.46937    359.94548    159.54578    38614.337 
   39600    294.44934   -1325.9952    384.70494    382.27763    324.62513    38614.337 
   39700    299.22889   -1327.8782    385.89774    403.07186   -122.62326    38614.337 
   39800    299.87531   -1301.3655    392.91511    439.50755    177.95863    38614.337 
   39900    300.92865    -1309.678    396.96169    439.97655   -152.78857    38614.337 
   40000    305.80509   -1296.3935    412.37173    490.59088    125.50617    38614.337 
   40100    307.27759   -1324.6709    386.94702    443.50781   -2.1107437    38614.337 
   40200    303.23913   -1315.6114    391.81523    439.28238    428.82438    38614.337 
   40300    298.83503   -1327.0198    414.23863    430.50067   -248.23691    38614.337 
   40400    301.92403   -1310.1105     401.7202     448.7768   -118.99852    38614.337 
   40500      305.216   -1281.5204    392.28905    482.73338   -476.18641    38614.337 
   40600    305.18246   -1281.6475    425.14014    515.30655    303.45893    38614.337 
   40700    295.25514   -1281.8195    422.21918    467.58976    173.01311    38614.337 
   40800    302.81921   -1260.8424    422.60026    522.94888    293.19247    38614.337 
   40900    293.37884   -1322.2356    408.75963    405.27998    540.08599    38614.337 
   41000    304.02107   -1326.0126    400.20861    440.78943    326.63104    38614.337 
   41100    299.19854   -1283.0295    416.66558    478.55195    372.79639    38614.337 
   41200    300.44581   -1273.0757    446.25183    523.69855    269.15856    38614.337 
   41300    306.90766   -1252.5748    399.82722    526.82119    288.82608    38614.337 
   41400    298.01707   -1316.3446    402.62352    425.88396    183.94828    38614.337 
   41500    300.23925   -1309.8466    395.31424    435.06156    74.425548    38614.337 
   41600    299.91359   -1333.5558    404.11884    418.69305    285.12477    38614.337 
   41700    307.87482   -1291.8557    405.27093    497.33146    574.95901    38614.337 
   41800     292.0946   -1325.7127    399.73528    387.00578    120.14619    38614.337 
   41900    309.11395   -1356.9027    406.20854    438.79208    220.62423    38614.337 
   42000     301.8439   -1328.1904    399.94442    428.56091    205.21742    38614.337 
   42100    283.25085   -1317.0411     387.8425    344.03141    372.51864    38614.337 
   42200    304.20178   -1279.9864    399.42573    486.84506   -126.87709    38614.337 
   42300    292.46134   -1306.4437    414.29614    422.48418   -23.061874    38614.337 
   42400    297.26208   -1284.3868    395.73281    447.55733    323.48705    38614.337 
   42500    305.28865   -1308.7808     398.7764    462.28691     20.41621    38614.337 
   42600    303.15642   -1273.1385    414.33938    503.90768    442.58431    38614.337 
   42700    287.83389   -1305.2542    381.31898    369.89577   -69.058447    38614.337 
   42800    308.63307   -1285.8008    386.98531    488.50918    274.40393    38614.337 
   42900    305.50984   -1292.5207    403.72175    484.48662    326.95444    38614.337 
   43000    305.14945   -1280.0418    404.46819    496.09197    325.14478    38614.337 
   43100    313.77293   -1283.7987    390.90855    517.53842    153.35331    38614.337 
   43200    303.16633   -1264.4373    430.53826     528.8523    684.93683    38614.337 
   43300    294.59902   -1250.2815    401.80734    475.76657    164.60171    38614.337 
   43400    305.89381   -1277.1522    390.48138    488.34064   -49.788191    38614.337 
   43500    292.75571   -1298.7497    394.75296    411.95813   -33.009126    38614.337 
   43600    300.11525   -1240.3929    415.45207    524.09576    59.403115    38614.337 
   43700    289.98054   -1289.5172    429.36749    443.33071   -56.888261    38614.337 
   43800    295.32013   -1266.9289    409.01341    469.56664    795.30665    38614.337 
   43900    303.33735   -1267.0544    400.55445     497.0201    265.32776    38614.337 
   44000    299.92604   -1277.2099    418.69577    489.67188    54.621063    38614.337 
   44100    292.15341   -1283.3185     430.1737    460.10276    165.09218    38614.337 
   44200    298.80422   -1281.5276    423.64112    485.25688    181.58907    38614.337 
   44300    301.59167   -1293.3737     403.2148    465.51423    215.00804    38614.337 
   44400    290.93737   -1283.1971     421.2645    445.84881    162.35097    38614.337 
   44500    298.96247   -1272.1806    417.70414    489.37819   -217.35272    38614.337 
   44600    303.20455   -1278.2252    445.22464     529.9225   -727.68066    38614.337 
   44700    306.10719   -1283.2185    406.21981    498.97197   -203.94658    38614.337 
   44800    290.21734   -1294.5643    414.31433    424.29488   -1114.6758    38614.337 
   44900      310.302   -1296.1528    405.72458    504.39839   -693.32866    38614.337 
   45000    289.14455   -1290.0226    396.49603    406.19595   -843.47957    38614.337 
   45100    293.58115   -1282.0526    437.70368    475.31645   -263.13447    38614.337 
   45200    301.68751   -1319.3583     409.1931    445.93879    370.86618    38614.337 
   45300    295.84979   -1329.6848    423.39236    423.57056    379.40175    38614.337 
   45400    307.04965   -1341.0085    416.61355     455.8121    596.96809    38614.337 
   45500     306.5518   -1342.4367    414.64926    450.18179     512.9312    38614.337 
   45600    304.76904   -1334.9901    409.07237    444.03784    346.25167    38614.337 
   45700    297.08111   -1317.3635    414.69695    432.73127    468.18065    38614.337 
   45800    292.23123   -1341.0142    406.73899     379.3221   -592.87915    38614.337 
   45900    307.13874   -1317.7394    414.11472     476.9829   -418.55609    38614.337 
   46000    308.43337   -1321.1264    441.21576    506.51629   -570.27833    38614.337 
   46100    308.89633   -1356.8822    403.30357     434.9294   -278.66612    38614.337 
   46200    294.71791   -1331.5017    417.31614    410.58961    132.08943    38614.337 
   46300    303.65228   -1368.6311    401.94276    398.24735    126.92699    38614.337 
   46400    305.49934   -1350.9286    398.34973     420.6595    603.42565    38614.337 
   46500    290.64583   -1313.7116      415.391    408.15027    135.52868    38614.337 
   46600    295.98135   -1349.6345    419.86584    400.68572   -187.65634    38614.337 
   46700    309.35527   -1328.8495    409.15851    470.88003   -497.48254    38614.337 
   46800    296.88844   -1328.9081    419.47461    425.09833   -142.00256    38614.337 
   46900    305.24538   -1359.3436    431.19721    443.95041   -506.49187    38614.337 
   47000    294.55494    -1305.571    425.26358    443.73518    74.105829    38614.337 
   47100    307.00828   -1329.2965    406.64599    457.37064     79.38851    38614.337 
   47200    296.19666   -1302.7817    411.54732    440.18785   -431.99542    38614.337 
   47300    303.49021   -1277.2731    416.83051     503.7646    350.30197    38614.337 
   47400    300.53305   -1309.9075    416.89833    457.90533    419.77364    38614.337 
   47500    301.16268   -1284.2878    403.46633    472.92333    410.32297    38614.337 
   47600    289.18935   -1312.5611    422.44374    409.80661      91.0914    38614.337 
   47700    299.42102   -1333.3517    393.49438     406.0586    357.62457    38614.337 
   47800     302.2552   -1293.8966    429.19158    493.95077    388.75332    38614.337 
   47900    308.05399   -1325.0706    436.44295    496.09396    249.19653    38614.337 
   48000    298.93549   -1304.8942     424.8544    463.69364     234.1833    38614.337 
   48100    301.95853   -1289.8731    425.00146    492.45053   -371.55218    38614.337 
   48200    294.23668   -1317.5364    418.85232    423.92787    42.261181    38614.337 
   48300    302.18947   -1305.0662    422.83541    476.12946   -137.34129    38614.337 
   48400    293.58319   -1302.4332    423.36513     440.6064   -138.10574    38614.337 
   48500    300.36956   -1349.2512    439.70768    440.63611   -50.006095    38614.337 
   48600    296.67378   -1347.8253     431.0438     416.7854    -58.47501    38614.337 
   48700    294.21714   -1353.1854    397.49124    366.83001   -14.829359    38614.337 
   48800    302.45913   -1316.1695    428.15592    471.55876    599.22545    38614.337 
   48900    304.93762   -1392.7587    401.86493     379.8196    169.18157    38614.337 
   49000    301.46829    -1341.155    413.34209    427.30564    37.754658    38614.337 
   49100    294.88019    -1301.752    417.05291    440.80557   -177.47682    38614.337 
   49200    302.74983    -1297.489    432.06263    495.45273   -237.75526    38614.337 
   49300    303.41152   -1314.1798    418.36577    468.03941    -22.81547    38614.337 
   49400    295.83201   -1310.6965    437.18579     456.2724    374.47721    38614.337 
   49500    305.09813   -1304.5823    441.33196    508.18459     193.0503    38614.337 
   49600    304.44194     -1274.28    418.65774    512.86304    474.74302    38614.337 
   49700    303.39192   -1283.0005    428.65314    509.41801     707.1114    38614.337 
   49800    304.57208   -1287.1299    440.30694    522.24731    643.56796    38614.337 
   49900    297.68774   -1331.8662    438.07784    444.33637    847.83137    38614.337 
   50000     300.8055    -1319.216    424.76409     457.6873    69.607903    38614.337 
   50100    303.14621   -1323.7881    426.51651    465.38927    101.29424    38614.337 
   50200    297.96925   -1344.5926    404.72098    399.51851    73.723876    38614.337 
   50300    306.38025   -1326.4107    421.41701    472.20441    35.969463    38614.337 
   50400    308.82676   -1296.7989    416.23222    507.62863    30.059525    38614.337 
   50500    308.45948   -1334.1022     439.7356    492.17776    129.99371    38614.337 
   50600    292.80697   -1291.7291    429.09537    453.55167    122.06484    38614.337 
   50700    306.31271   -1287.4839    441.00717    530.41771     91.59898    38614.337 
   50800     303.4013   -1310.0148    406.50857    460.30133   -321.89733    38614.337 
   50900    298.57521    -1315.614    405.79297    432.29296   -490.84678    38614.337 
   51000    301.91968   -1343.3488    436.03292    449.83169   -350.04372    38614.337 
   51100     292.3672   -1371.0375    424.61819    367.78923   -506.56683    38614.337 
   51200    288.02419   -1334.1848    440.41439    400.91611    92.189667    38614.337 
   51300    304.98232   -1313.0933    439.84567    497.66665   -99.393035    38614.337 
   51400    305.14505   -1345.9358    436.97487    462.68484   -33.267702    38614.337 
   51500    309.45579   -1331.3901    424.94326    484.57604    737.89318    38614.337 
   51600    306.28282    -1339.813    449.75362    486.70073   -347.06856    38614.337 
   51700    299.46477   -1329.3401    431.94647    448.71891   -510.45978    38614.337 
   51800    300.04556   -1301.9286    453.33446    500.12909   -328.52802    38614.337 
   51900    304.21328   -1326.3105    440.80364    481.95059    200.26001    38614.337 
   52000    295.01167   -1299.0428    432.65767     459.7105    171.91581    38614.337 
   52100    315.44987   -1298.5571    411.28315     530.6926    220.80668    38614.337 
   52200    294.90846   -1262.4643     424.2905    487.45786    154.06569    38614.337 
   52300    296.44275   -1266.1158    440.27219    506.68478    385.19566    38614.337 
   52400    315.91336   -1304.2811    424.02763    539.79657     452.4369    38614.337 
   52500    292.80837   -1342.7001     427.7033    401.19484    118.69168    38614.337 
   52600    303.87174   -1376.9805    411.29051    400.23222     156.5346    38614.337 
   52700     308.8808   -1385.7684    413.16759    415.83738    848.57829    38614.337 
   52800    289.50406    -1350.187    435.15581    386.30739    66.179991    38614.337 
   52900    303.33448   -1356.6894     455.2916    462.10934   -35.977442    38614.337 
   53000    297.28073   -1362.6316    430.49926    404.16285    146.25399    38614.337 
   53100    291.31849    -1340.967    439.85119    408.37876   -410.27357    38614.337 
   53200    298.28951   -1374.5327    446.98198    413.27906    385.75101    38614.337 
   53300    296.26456   -1339.4729    431.02432    423.27881    202.94428    38614.337 
   53400    304.26389   -1339.2463    444.46435    472.90289    685.84929    38614.337 
   53500    289.35466   -1388.4891    439.67866    351.85654    186.95941    38614.337 
   53600    299.88827   -1344.5561    426.33474    429.79488    355.45231    38614.337 
   53700    309.49067   -1349.3182    425.62584    467.48725    157.30591    38614.337 
   53800    302.62212    -1351.457    427.92447    436.77254   -463.52991    38614.337 
   53900    294.81319   -1371.3711    429.59641    383.42879   -65.814634    38614.337 
   54000    293.40709   -1369.9849     415.6021    364.50012   -460.38791    38614.337 
   54100    298.45665   -1333.4819     429.0665    437.16559   -200.42878    38614.337 
   54200    286.82572   -1324.1324     414.1241    379.29092    -276.0734    38614.337 
   54300    289.39641   -1366.7363    437.35097    371.46938    154.47665    38614.337 
   54400    309.63497   -1375.8974    414.10741    430.03826   -31.997187    38614.337 
   54500    301.46032   -1347.2808    427.16584    434.96774   -420.69154    38614.337 
   54600    298.50457    -1399.085    434.66846    377.37983   -487.12103    38614.337 
   54700    297.48544   -1396.2721    417.63637    358.57965   -919.95473    38614.337 
   54800    304.31175   -1388.5354    436.26655    415.63123   -599.43041    38614.337 
   54900    309.85881   -1398.3857    438.41885    432.86759   -473.85773    38614.337 
   55000    304.84525   -1347.8036     447.1649    469.65945   -458.27003    38614.337 
   55100    299.95627    -1359.791    410.18509    398.71593    14.160165    38614.337 
   55200    303.04017   -1387.8352    393.92739    368.27644   -160.80431    38614.337 
   55300    297.36723   -1405.2001    417.35368    348.83759    107.82926    38614.337 
   55400    306.86391    -1417.313    452.05125    414.11038    354.78599    38614.337 
   55500    299.53464   -1423.0973    425.85925    349.18864    154.70615    38614.337 
   55600    302.35294   -1412.7951    430.95846    377.25845   -350.80943    38614.337 
   55700    299.06626   -1402.4503    411.16904    353.03996   -32.325766    38614.337 
   55800    299.78642   -1434.6079    452.77722    365.72779   -72.407241    38614.337 
   55900    294.57939   -1423.9069    452.87842    353.12402    40.941644    38614.337 
   56000    298.12414   -1407.4055    425.50909    358.18994    316.12271    38614.337 
   56100    308.44886    -1423.799    403.47841    366.17601    49.585907    38614.337 
   56200    307.32871   -1423.2879    425.61252    383.78608    43.080111    38614.337 
   56300     298.0017   -1393.8195    429.76522    375.48169    -276.2856    38614.337 
   56400    307.80164   -1408.1007    407.11023    382.59684    158.52918    38614.337 
   56500    291.53651   -1409.1951    420.03407     321.3136   -422.05202    38614.337 
   56600    305.73914    -1377.978    424.73252    421.07078    250.65683    38614.337 
   56700    296.26184   -1369.4777    455.89116    418.12865   -447.45189    38614.337 
   56800    303.64009   -1372.5368    437.36101     429.7051   -159.49903    38614.337 
   56900    306.65851   -1408.7097    428.95893    398.69812   -30.572556    38614.337 
   57000    299.11061   -1397.7713    421.96202    368.71127   -208.88457    38614.337 
   57100    298.96114   -1382.5416      448.314    409.62109    76.259247    38614.337 
   57200    303.16024   -1419.8277    431.91555    374.81175    8.0657801    38614.337 
   57300    295.45545   -1416.9397     432.2174    343.36809    414.61616    38614.337 
   57400    301.10595   -1404.2861    414.18002    363.38374    191.82977    38614.337 
   57500    295.26375   -1389.5815    441.52257    379.16977    72.456295    38614.337 
   57600    297.80626   -1333.6113    438.44729    443.49342   -321.28891    38614.337 
   57700    292.76826   -1372.5838    423.00607    366.43364   -104.05525    38614.337 
   57800    298.85598   -1356.4109    428.16959    415.13469   -103.61197    38614.337 
   57900    312.29231   -1320.4032    450.18236    533.55234   -287.85257    38614.337 
   58000    294.58812   -1336.1103    431.35701    419.43846   -37.984694    38614.337 
   58100    301.31235   -1347.8229    439.59796    446.19261    33.512976    38614.337 
   58200    299.26906   -1355.6852    428.77977    418.32742   -195.28076    38614.337 
   58300    307.90688   -1320.8711    446.93027     510.1196    195.34803    38614.337 
   58400    308.56439    -1361.946    434.14723    459.21715   -103.22642    38614.337 
   58500    302.25135   -1348.2117    443.17012    453.59682   -188.48479    38614.337 
   58600    301.77102   -1385.8659    422.21901    392.83243   -766.04358    38614.337 
   58700    302.18005   -1374.0639    408.64699    392.90105   -451.77501    38614.337 
   58800    303.45353   -1332.0076    436.37943    468.41408   -362.95917    38614.337 
   58900    309.06603   -1360.8007    438.21647    466.68663   -436.42434    38614.337 
   59000    294.87852   -1367.1253    430.73131    389.10308   -315.44588    38614.337 
   59100     306.8709    -1349.484    420.34293    450.26251   -160.79354    38614.337 
   59200    299.86224   -1370.5336    427.03163    404.39727   -436.42167    38614.337 
   59300    305.58629   -1361.3909    429.13078    441.36912   -26.356665    38614.337 
   59400    302.39629   -1389.5165    435.63024    405.40368    158.97251    38614.337 
   59500    303.78411   -1382.6398    445.63886    428.52737   -166.22875    38614.337 
   59600      304.639   -1411.4166    431.76715    389.72161    14.207004    38614.337 
   59700    294.83466   -1374.9971    429.20259    379.50543   -346.16819    38614.337 
   59800    289.75287   -1406.4287    413.92062    309.94894    -426.0356    38614.337 
   59900    299.32342   -1374.0912    447.41847    418.80443    77.212607    38614.337 
   60000    298.56201   -1353.6841    422.97278    411.34327    538.40434    38614.337 
   60100    295.69295   -1382.1055      440.141    387.19352    93.530558    38614.337 
   60200    300.47933   -1392.8948    416.85093    374.62919   -292.24677    38614.337 
   60300    306.76236   -1421.5744    428.30889     385.6502   -197.81097    38614.337 
   60400    303.03659    -1383.332    436.93054    415.76668   -243.03595    38614.337 
   60500    289.66111   -1406.1886    443.14098     338.9969   -138.11326    38614.337 
   60600    299.99685   -1416.7887    443.70588    375.42147   -325.09667    38614.337 
   60700    301.23922   -1365.8364    438.80857    427.06104    106.86236    38614.337 
   60800    300.45722   -1406.1147    451.20046    395.65948    227.88631    38614.337 
   60900    299.07434   -1374.3557    448.22067    418.22258    329.32979    38614.337 
   61000    302.50012   -1393.8765    441.44259    407.32279    693.74787    38614.337 
   61100    303.63151   -1351.7646    470.28494    483.36267    554.45891    38614.337 
   61200    303.18575   -1367.6473    450.74645    445.93777    110.90252    38614.337 
   61300    295.29867   -1380.2958    444.16119     391.2511   -75.203773    38614.337 
   61400    292.81234   -1335.7748    447.31998    427.75468    114.81013    38614.337 
   61500    310.15481   -1334.2792    449.17115    509.05694    367.00447    38614.337 
   61600    304.47939   -1368.3008    444.94232    445.29511    74.094112    38614.337 
   61700    290.87045   -1363.8377    438.68823    382.33109    -363.7723    38614.337 
   61800    300.41457   -1350.6068    446.59223    446.36747    328.45948    38614.337 
   61900    291.89565   -1358.7315    457.68621    411.04367    338.34959    38614.337 
   62000    293.58607   -1335.4975    470.68169    454.87159    260.23899    38614.337 
   62100    300.27187   -1360.4425    447.40359    436.70164    130.96292    38614.337 
   62200    295.74819   -1345.3847    432.31511    416.33674   -31.180744    38614.337 
   62300     298.4058   -1383.5539    448.91842    406.71699    -204.1831    38614.337 
   62400    309.60469   -1357.2048    464.66453    499.15182   -177.74429    38614.337 
   62500    292.74489   -1373.4611    447.44027    389.88542   -200.45504    38614.337 
   62600    301.46765   -1377.5615    443.80497    421.35906    118.35822    38614.337 
   62700    304.87537   -1405.5707    441.39389    406.25676    129.29756    38614.337 
   62800    304.22789   -1423.6606    447.98612     391.8486      409.883    38614.337 
   62900    300.41268   -1410.2975    466.63706    406.71307    543.41065    38614.337 
   63000    302.44075   -1369.3043    464.94515    455.13063    300.03765    38614.337 
   63100    291.93321   -1377.8926    432.38587    366.75104    251.02508    38614.337 
   63200    298.82301   -1353.2138    470.13053    460.14458    452.82774    38614.337 
   63300    294.50553   -1373.0228    461.23768     412.0354    401.16942    38614.337 
   63400     285.7276   -1422.3059    455.87948    317.93673   -518.91856    38614.337 
   63500    301.58999   -1373.2959    458.72087    441.09056   -94.638159    38614.337 
   63600     293.0927   -1409.4626    431.83337    339.84044   -192.17887    38614.337 
   63700    296.06771    -1408.554    429.89207    352.18068    63.983888    38614.337 
   63800     294.8431   -1399.8965    429.11728    354.55868    548.79728    38614.337 
   63900    294.91917   -1416.0583    439.02713    348.64862    150.67759    38614.337 
   64000    304.37297   -1377.8781    432.53531    422.83242   -260.05068    38614.337 
   64100    302.95865    -1372.623    457.69653    446.89131   -150.41904    38614.337 
   64200    295.97726   -1374.8161    463.05985    418.67981   -363.94586    38614.337 
   64300    293.25143   -1412.2224    454.70274    360.66355    116.11288    38614.337 
   64400    309.09279   -1369.9616    430.32202    449.75159   -130.49166    38614.337 
   64500    302.62641   -1461.0034    454.19526    353.51622    129.47368    38614.337 
   64600    294.28626   -1393.6659    448.32755    377.49646    253.76884    38614.337 
   64700    300.15856   -1463.4151    469.86653    355.68258    97.079986    38614.337 
   64800    304.47898   -1448.3348    441.81468    362.13168   -166.61577    38614.337 
   64900    304.27612   -1433.1192    451.95183    386.57254    318.80543    38614.337 
   65000     286.3072   -1431.2072    463.30121    319.06252   -371.34101    38614.337 
   65100    309.72712   -1440.4699    442.80394     394.5765    90.294453    38614.337 
   65200     292.1531   -1416.2405    458.06156    355.06725    193.46236    38614.337 
   65300    307.16855   -1433.4594    445.56521    392.84732    407.23491    38614.337 
   65400    304.52143   -1416.4288    450.40289    402.81664    535.38734    38614.337 
   65500    301.91918   -1393.7172    454.09226    417.52031      523.659    38614.337 
   65600    308.01652   -1442.7145    461.29834      403.137    674.01111    38614.337 
   65700    294.42016   -1478.9646    447.64337    292.11553   -96.027273    38614.337 
   65800    307.85764   -1440.2143    434.24906    377.87384     526.4442    38614.337 
   65900    296.79188   -1450.0919    434.54426    318.55009    100.82377    38614.337 
   66000    297.88323   -1419.3881    451.96345    371.57885    572.44389    38614.337 
   66100    313.49171    -1441.223    460.09375     428.0353    273.54981    38614.337 
   66200    299.91163   -1409.4411    437.83117    376.51135    92.298965    38614.337 
   66300    297.92551   -1448.3148    453.90573    344.78441    260.25275    38614.337 
   66400    297.53032   -1440.0326      444.404    341.78851    439.37942    38614.337 
   66500    298.11394   -1432.1086    467.29119    375.22309   -73.645579    38614.337 
   66600    298.57859   -1424.6983     450.0801    367.51094      7.50315    38614.337 
   66700    304.99456    -1436.033    450.51655    385.45284   -296.22027    38614.337 
   66800    292.49276   -1429.2341    456.07939    341.61822    -354.1266    38614.337 
   66900    304.44994   -1424.0639    436.30535    380.76264     -658.739    38614.337 
   67000    298.23709   -1402.7688    443.61054    381.43582   -281.58804    38614.337 
   67100    310.14905   -1433.3363     437.7762    398.57895    -751.9264    38614.337 
   67200    290.38696   -1427.2165    446.28951     324.3803   -495.60961    38614.337 
   67300    292.01532   -1450.3563    458.51113    320.78168   -544.79586    38614.337 
   67400    306.47418   -1435.7975    459.47055    401.29339   -424.73273    38614.337 
   67500    295.57284    -1428.961    437.30581    336.96294    21.154351    38614.337 
   67600    301.15413   -1479.9998    457.93305    331.63962   -15.518937    38614.337 
   67700    290.50193   -1462.3478    433.37323    276.84949   -302.28326    38614.337 
   67800    297.42451    -1463.167    448.08733    321.86183   -164.13789    38614.337 
   67900    293.19405   -1485.9132    450.36662     282.3787   -170.05363    38614.337 
   68000    304.10797   -1486.2362     434.3588    315.10662    693.52936    38614.337 
   68100    306.07916   -1509.4574    435.18514    301.57242    536.19293    38614.337 
   68200    307.69037   -1467.3624    462.74879    378.47357    267.24213    38614.337 
   68300    297.57578   -1467.0407    455.60016    326.18087   -117.06605    38614.337 
   68400    296.52091   -1415.0835    451.62426    369.42045   -137.32463    38614.337 
   68500    296.62077   -1425.8495     443.1428    350.62192   -394.14574    38614.337 
   68600    307.59587   -1442.8362    451.35368    391.17981   -795.77702    38614.337 
   68700    298.58918   -1398.6415    439.49143    383.02665   -1136.4249    38614.337 
   68800    300.94148   -1389.3493    440.34832    403.74948   -487.55555    38614.337 
   68900    294.41219   -1404.6274    454.99778    373.77126   -145.34834    38614.337 
   69000    303.90435   -1390.2375    435.36566    411.19694    119.65533    38614.337 
   69100    297.76345    -1411.556    452.35785    379.26687   -124.37153    38614.337 
   69200    295.34651   -1424.7324      451.307    354.17535   -483.25475    38614.337 
   69300    290.49642   -1457.4061    442.96964    291.36286   -17.446257    38614.337 
   69400    293.32727   -1415.0753    436.15946    339.60823    167.66714    38614.337 
   69500    302.39676   -1391.7477    445.79058    413.33496    133.48642    38614.337 
   69600    304.37117   -1429.4028    458.75248    397.51679    217.21963    38614.337 
   69700     311.6028   -1440.5783    446.88961    406.98511    184.94447    38614.337 
   69800    304.31376   -1467.0018    442.49083    343.39812   -65.175016    38614.337 
   69900    298.86394   -1424.1638    461.18976    380.43781   -56.178627    38614.337 
   70000    311.00908   -1424.2228     430.3485    404.13063      204.143    38614.337 
   70100    292.40685   -1436.5806    455.59997    333.40614    109.27474    38614.337 
   70200    295.09061   -1406.5412    438.40691    358.31616    440.17478    38614.337 
   70300    296.62937   -1411.5969    448.23509    370.00543    742.41035    38614.337 
   70400    308.00422   -1416.0505      440.072    408.51939    531.46029    38614.337 
   70500    295.91416   -1418.4285    463.01768    374.74159    493.48424    38614.337 
   70600    293.48263      -1399.1    436.17829    356.30084    219.82698    38614.337 
   70700    308.25641   -1426.5995      459.968    418.99999    282.85565    38614.337 
   70800    309.58614   -1439.5104    446.41573    398.51406    217.57495    38614.337 
   70900    296.31976   -1411.2747     456.6761    377.37692     645.6263    38614.337 
   71000    294.85756   -1469.9704    451.84373    307.27622    476.44597    38614.337 
   71100    302.42025   -1428.0295    455.07159     386.4397    735.49479    38614.337 
   71200    288.58802   -1502.2443    442.25093     237.2275    169.24643    38614.337 
   71300    307.65629   -1514.2735    451.22766     319.8881    333.08655    38614.337 
   71400    292.56086   -1455.8477    431.11384    290.34522     614.9534    38614.337 
   71500    306.86844    -1496.327    461.93375    344.99929    363.62973    38614.337 
   71600    301.61521   -1459.3111    444.29654    340.76436    720.63461    38614.337 
   71700    289.04167   -1414.3029    445.98037    330.93758     368.6427    38614.337 
   71800    310.39999   -1432.5719     439.7843    402.47947    256.88657    38614.337 
   71900    299.21012   -1420.3856    467.60498    392.18725   -317.95935    38614.337 
   72000    296.16608   -1441.6074    449.66656    339.34396   -243.44087    38614.337 
   72100    299.48471   -1405.7535    488.06127    428.50999    12.125707    38614.337 
   72200    298.73457   -1424.9251    440.76206    358.66727   -319.96409    38614.337 
   72300    304.13752   -1414.4053    445.14305    397.85462    148.52487    38614.337 
   72400    312.21244   -1419.2413    437.23426    421.40713     166.6257    38614.337 
   72500    289.35599   -1428.7987    444.99824    316.87255   -255.97267    38614.337 
   72600    296.01379    -1428.424    432.96788     335.1441   -8.1186375    38614.337 
   72700     305.2308   -1404.0112    421.71435    389.73443   -205.76928    38614.337 
   72800    310.14368   -1396.6433    439.44198    436.91358   -890.11384    38614.337 
   72900    288.42448   -1404.4403    444.47703    336.52257   -348.99826    38614.337 
   73000    299.49755   -1416.0109     448.0687    378.31774   -219.10301    38614.337 
   73100    306.40244   -1419.0617    433.42725    391.66334    30.958749    38614.337 
   73200    292.15983   -1404.2554    439.13617    348.15721    22.469455    38614.337 
   73300    305.26803   -1418.0838    440.06358    394.17831    41.525569    38614.337 
   73400      300.914   -1394.1002    431.56653    390.09332    16.701571    38614.337 
   73500    298.56576   -1423.3308    460.29937    379.04005    257.11213    38614.337 
   73600    303.02841   -1407.3197    458.08074    412.89245    683.18372    38614.337 
   73700    307.11666   -1389.1185    450.69801    442.08784    962.80261    38614.337 
   73800    295.83345   -1414.2554    430.22233    345.75644     742.2529    38614.337 
   73900    287.09544   -1421.2166     438.0052    307.30027    673.34311    38614.337 
   74000    300.16403   -1395.5985    441.27819    394.93542    319.54832    38614.337 
   74100    299.91547   -1377.5797    433.90501    404.46386    87.807528    38614.337 
   74200     294.7369   -1386.2615    424.86388    363.46294   -22.205047    38614.337 
   74300    298.80936   -1373.4697    470.55325    440.24999    68.845694    38614.337 
   74400    296.03426   -1363.9961     468.8991     435.5952    716.32224    38614.337 
   74500    296.25801   -1382.6889    426.85169    375.86076   -22.050336    38614.337 
   74600    294.59213   -1342.8826    454.89545    436.22265    280.54804    38614.337 
   74700    305.64651   -1376.2712    424.49063    422.11928   -100.95727    38614.337 
   74800    300.52787   -1389.4386    439.93897    401.39162   -118.82184    38614.337 
   74900    293.84108   -1391.1408     442.5324    372.22535   -662.44901    38614.337 
   75000    304.97149   -1359.8959    446.69326    457.66295   -378.56405    38614.337 
   75100       301.05   -1353.6464    446.67638    446.26828   -254.95378    38614.337 
   75200    300.54591   -1355.5999    435.75791    431.13033    -353.2749    38614.337 
   75300    297.25497   -1358.1207    439.49832    417.55703   -30.398196    38614.337 
   75400     292.7554   -1361.5394    442.25242    396.66651   -206.88412    38614.337 
   75500    296.75896    -1377.491    443.40081    399.85963   -37.778891    38614.337 
   75600     297.4386   -1353.4939    458.36904    441.88001    466.41024    38614.337 
   75700    307.05002   -1351.9369    446.94377    475.21558    610.15055    38614.337 
   75800    298.90496   -1401.8713    436.31926    378.04421    870.70428    38614.337 
   75900    303.39324   -1424.5295     436.3729    375.61475    104.15601    38614.337 
   76000    303.67577   -1354.3805    440.75119    451.41193    644.79568    38614.337 
   76100    301.76705   -1335.6908     463.5331    484.30376    322.37219    38614.337 
   76200    314.81833   -1344.9768    436.03873    506.18967      167.906    38614.337 
   76300    295.48087    -1376.795    436.17056    387.58027    53.788402    38614.337 
   76400    305.73296    -1414.106    420.33121    380.51366    273.02921    38614.337 
   76500    298.97905   -1394.2273     455.3216    405.02359    49.540026    38614.337 
   76600    294.72905   -1427.0659    433.36544    331.12473   -186.71065    38614.337 
   76700    304.73226    -1411.424    453.48023    411.84652    258.12974    38614.337 
   76800    293.81513    -1424.177    438.09719    334.63732   -105.38012    38614.337 
   76900    310.31678   -1403.7581    452.66299    443.79791   -150.11013    38614.337 
   77000    294.72593    -1393.413    457.75258    389.15074    253.32983    38614.337 
   77100    302.24554   -1381.3086    465.57101    442.87469    111.89832    38614.337 
   77200    301.27549   -1379.4621    435.19639    409.98618    339.65658    38614.337 
   77300    296.42865   -1368.6969    458.33119    422.09933    46.782633    38614.337 
   77400    308.22296   -1368.5326    461.52996    478.47853    429.73979    38614.337 
   77500     305.1771   -1351.2754    442.81986    463.33438    482.31256    38614.337 
   77600    293.75048   -1355.0825    466.14385     431.4878    98.249505    38614.337 
   77700    289.88408   -1382.3991     439.1335    359.78114    345.52698    38614.337 
   77800    299.28282    -1354.097    457.02659    448.22432    457.39912    38614.337 
   77900    312.87922   -1362.3677    444.89059    488.93427    574.20539    38614.337 
   78000    290.91337   -1305.0896    482.27309      484.857     461.9794    38614.337 
   78100    297.31382   -1287.0372    464.87195    514.27862   -204.35081    38614.337 
   78200    290.73615   -1343.2028    459.96432    423.63845    167.78216    38614.337 
   78300    296.53687   -1343.2038    450.41088     440.1586    78.533073    38614.337 
   78400    301.36568   -1320.5642    452.35341    486.44646   -858.06027    38614.337 
   78500    303.62037   -1424.9201    439.72352    379.59571   -719.59218    38614.337 
   78600    300.89502   -1392.2553    430.13694    390.42327   -355.88166    38614.337 
   78700     296.7037   -1400.4935    444.06888    377.27683   -285.43474    38614.337 
   78800    304.91272   -1392.0521    429.91211     408.4615    290.75357    38614.337 
   78900    302.62792   -1402.1647    461.57146    419.73787    538.52203    38614.337 
   79000    298.32316   -1377.8844    455.18459    418.28113    715.19571    38614.337 
   79100    294.05352   -1384.6564    455.49411    392.62639    472.57021    38614.337 
   79200    294.29031   -1424.1862    480.39769    379.06458    496.31078    38614.337 
   79300    285.38341   -1400.4226    474.72426    357.11764    350.19614    38614.337 
   79400    302.23909    -1327.795    446.06603    476.85439    554.88717    38614.337 
   79500    287.64374   -1359.1413    473.13254    406.96756    223.80898    38614.337 
   79600    290.85486   -1382.3217    483.18116    408.26994       140.23    38614.337 
   79700    308.84368   -1428.4514    428.96151    388.78148    568.27419    38614.337 
   79800    296.22476   -1407.8338    465.71481    389.42958    467.69681    38614.337 
   79900    299.04654   -1398.5203    457.16973    402.88201    457.54061    38614.337 
   80000     287.5132   -1378.4907    469.54852    383.44731     417.1824    38614.337 
   80100    300.10769   -1357.4095    443.88066    435.47368     314.7925    38614.337 
   80200    298.86234   -1337.8423    464.24284    469.80518    462.89932    38614.337 
   80300     297.9368   -1355.2951    453.13561    437.08481   -12.584672    38614.337 
   80400    288.42299   -1313.8874     456.2735     438.8652    354.45732    38614.337 
   80500    309.05605   -1336.9097      448.082    500.39828    384.76262    38614.337 
   80600    298.65065   -1359.2496    470.44947    453.65293    -313.2346    38614.337 
   80700    304.60299   -1360.0031    465.06601    474.27211   -274.82609    38614.337 
   80800    292.88627   -1364.3239    473.77266    425.99058    -131.2998    38614.337 
   80900    300.13166   -1375.0709    451.95447    425.99383   -7.4990948    38614.337 
   81000    303.64411   -1346.8197    440.88281    458.96209    257.52924    38614.337 
   81100    297.54272   -1389.4427    439.19202    387.22216   -292.65589    38614.337 
   81200    295.53736   -1355.9435    480.99566    453.51079    88.481245    38614.337 
   81300    296.08578    -1388.933    477.12733    419.11813    250.60818    38614.337 
   81400    295.56576   -1405.2675    450.78529    374.10407     340.3169    38614.337 
   81500     295.6493   -1371.6557    473.67197    430.97803     442.4437    38614.337 
   81600     309.8392   -1374.5892    471.76975    489.92688    554.76004    38614.337 
   81700    301.31906   -1451.7745    463.62711    366.30033    694.76548    38614.337 
   81800    290.46827   -1421.6301     453.3403      337.383    336.89387    38614.337 
   81900    299.72698   -1426.9092    463.98688    384.36892     509.8169    38614.337 
   82000    300.96299   -1418.7439    478.68558    412.78881    750.21207    38614.337 
   82100    306.27364   -1447.6501    448.65734     377.7261    592.36455    38614.337 
   82200    290.75166   -1397.9306    436.81139    345.82742    268.32342    38614.337 
   82300    301.46014   -1381.8982    476.35226    449.53599    830.05193    38614.337 
   82400    299.32235   -1399.8016    472.93137    418.60215    362.32366    38614.337 
   82500    298.38158   -1410.2966    460.54805    391.49506    356.02774    38614.337 
   82600    279.44843   -1373.7578    426.81089    309.19103    520.59298    38614.337 
   82700     302.4238   -1394.1637    457.82188    423.07175      190.363    38614.337 
   82800    298.16093   -1445.9691    476.64561    370.92828    362.29786    38614.337 
   82900    297.23537   -1425.0881    462.31956    373.32271   -415.55135    38614.337 
   83000     299.0202   -1388.2552    445.83963    401.69868       -351.8    38614.337 
   83100    295.61547   -1414.0713    454.69432    369.43274   -628.89986    38614.337 
   83200    289.34706    -1410.837    463.00081    352.79661   -715.23953    38614.337 
   83300    307.25637   -1401.9943    435.20387    414.34582   -609.80141    38614.337 
   83400    295.92323   -1365.2568    470.99617    435.93248   -16.213145    38614.337 
   83500    303.98557   -1399.1605     451.3783     418.6516    60.700686    38614.337 
   83600    297.35137   -1414.0573    424.76331    347.31869   -74.845584    38614.337 
   83700    297.01379   -1412.1236    484.36668    407.33837    527.22723    38614.337 
   83800    302.02505   -1404.2254    472.45686    425.85262    223.20157    38614.337 
   83900    307.79833   -1434.6231     450.5692    399.51855    582.80788    38614.337 
   84000    301.49094   -1398.7505    456.72358    413.19344    540.26053    38614.337 
   84100    293.73137   -1388.4693    470.97327    402.84457    250.81253    38614.337 
   84200    293.51869   -1383.0135    449.77228    386.14338    293.64774    38614.337 
   84300     291.2837    -1396.999     473.5056    385.84477    75.505278    38614.337 
   84400    287.45239   -1441.3488    458.09214    308.85951   -80.783079    38614.337 
   84500    288.37074   -1413.5563    463.59061    346.27849   -33.194186    38614.337 
   84600    306.26884   -1401.4172    434.39205     409.6721      693.102    38614.337 
   84700    296.23024   -1402.8617    457.64735    386.35876    147.23686    38614.337 
   84800    307.30666   -1414.4382    450.87431    417.79847    461.29002    38614.337 
   84900    307.97115   -1395.0467    446.99344    436.29599    530.19784    38614.337 
   85000    308.14156   -1410.7059    460.08959    434.49895     457.3947    38614.337 
   85100    301.77024   -1412.1559     449.7383    394.05815    742.99159    38614.337 
   85200    302.74687   -1382.7633    458.75393    436.85646    978.20305    38614.337 
   85300    306.17802   -1389.9879    460.12897    446.43015    833.13601    38614.337 
   85400    298.19757   -1395.6516    463.14419      407.909    158.38941    38614.337 
   85500    307.56326   -1380.4338    465.96302      468.045    554.58146    38614.337 
   85600    296.35563   -1383.0067    442.44876    391.57887    285.30929    38614.337 
   85700    305.43332   -1397.8781    485.05089    460.11431    336.65192    38614.337 
   85800    297.64598   -1363.8352    460.38229    434.48411    457.98918    38614.337 
   85900    293.59776   -1386.3927    472.54495    405.89228    442.20228    38614.337 
   86000    302.40387   -1347.9873     481.6166    492.95332   -84.873872    38614.337 
   86100     301.9447   -1390.0352     472.3491    439.57391   -286.26476    38614.337 
   86200      299.807   -1387.7552    445.05281    404.94848    199.10603    38614.337 
   86300     291.5807   -1366.2907     456.5624    400.94487    216.34519    38614.337 
   86400    291.10784   -1345.9897    459.01718    421.57513    153.62449    38614.337 
   86500    292.29458   -1344.2565    480.00601     449.6316    312.69387    38614.337 
   86600    291.99703   -1357.9869    497.37465    451.93236    518.39842    38614.337 
   86700    301.35063   -1338.0521    475.79977    492.33732    115.70016    38614.337 
   86800    291.92342   -1371.7423    463.96814    404.43954   -415.31622    38614.337 
   86900    298.47034   -1380.1411    453.32053    414.82204   -174.15599    38614.337 
   87000    295.57335   -1379.7222    483.94523    432.84347   -78.213578    38614.337 
   87100    308.15631   -1385.0924    451.91479    452.00395   -89.542478    38614.337 
   87200    308.03119   -1392.6499     441.1884    433.15772    134.42964    38614.337 
   87300    309.10389   -1443.1295    478.04708    424.35861     745.5218    38614.337 
   87400    301.84131    -1412.374    479.87077    424.29205   0.47621609    38614.337 
   87500     304.6282   -1428.5625    444.45961    385.21968    327.45815    38614.337 
   87600    295.47086   -1400.1861    441.48011     369.4537     88.53786    38614.337 
   87700    293.02045   -1407.5651    467.45649    377.03629    164.52777    38614.337 
   87800    305.32453   -1425.1146    458.65554    405.99353      428.119    38614.337 
   87900     293.1769   -1401.4827    464.12735    380.49285    403.78874    38614.337 
   88000    295.23164   -1444.2294    442.57505    325.43006    351.36798    38614.337 
   88100     303.3947   -1390.6528    486.76812    459.89312    264.90938    38614.337 
   88200    304.19102   -1417.8227    454.10051    403.63517    268.91353    38614.337 
   88300    295.15273   -1421.4936    472.67675    377.91283    98.856387    38614.337 
   88400    296.86977   -1426.8444    439.66981    347.27327   -325.99876    38614.337 
[...]
  984700    305.55709    -1486.769    473.76584    360.49481    404.27982    38614.337 
  984800    296.71332   -1501.8261     479.9929    311.91148    162.97247    38614.337 
  984900    309.34793   -1521.1968    470.76133    340.10253    642.23017    38614.337 
  985000    287.81902   -1506.4598    495.28869     282.5931    904.65575    38614.337 
  985100    312.77115   -1488.2714    483.11572    400.76984    732.85578    38614.337 
  985200    295.41034   -1431.0303    486.66788    383.52528    844.97759    38614.337 
  985300    299.97952   -1456.0728    491.02227    383.37582   -205.23932    38614.337 
  985400    290.10855   -1477.5408    492.55373    319.06876   -85.198431    38614.337 
  985500     297.8321   -1444.5722    484.23066    378.43204   -174.39208    38614.337 
  985600    293.64506   -1501.8237    474.07171    292.20067   -531.09959    38614.337 
  985700    297.77902    -1474.691    477.87619     341.7202   -72.782657    38614.337 
  985800    297.95066    -1459.188     461.9623     342.0809   -418.21147    38614.337 
  985900    303.23488   -1460.0743    460.08808    363.07324   -525.35146    38614.337 
  986000    291.77132   -1446.3243    492.78919    357.99491   -369.20146    38614.337 
  986100     309.3339   -1442.0926      487.508    435.89035    368.51823    38614.337 
  986200    293.40402   -1442.9265    494.19839    370.14103    216.42276    38614.337 
  986300    298.32617   -1484.1639     466.2846    323.11526    620.93737    38614.337 
  986400    300.27364   -1491.7774    459.76522    317.73629     144.7307    38614.337 
  986500    305.36755   -1456.4292    485.78489    402.00166    513.92617    38614.337 
  986600    303.99736   -1434.9654    454.69203    386.21348    266.90572    38614.337 
  986700    297.74843   -1459.8548    506.28523    384.82798   -38.310007    38614.337 
  986800     293.1273   -1446.3136    484.61714    355.92877    168.33531    38614.337 
  986900    297.24976   -1432.5152    459.46521    363.10595   -155.02761    38614.337 
  987000    294.66319   -1464.5536    466.78635    326.76196   -267.84151    38614.337 
  987100    307.20324   -1467.6081    463.30442    376.59375    41.491623    38614.337 
  987200    302.03246   -1477.0934    501.35195    381.91306   -231.69109    38614.337 
  987300    294.40216   -1424.7354    475.17642    373.79687   -13.565995    38614.337 
  987400    295.88954    -1446.272    494.94355    378.71323    208.06048    38614.337 
  987500    295.88351   -1457.5199    467.46514     339.9598    251.53465    38614.337 
  987600    300.82348   -1447.9073    475.69736    380.01015    141.91963    38614.337 
  987700    299.75117   -1423.7981     463.2477    386.84958    167.22936    38614.337 
  987800    301.52505    -1432.719     465.8879    388.54257    402.27657    38614.337 
  987900    296.20863   -1417.8392    499.75745    413.39427   -80.576253    38614.337 
  988000    300.15376   -1393.0516    475.01055    431.16857   -10.685487    38614.337 
  988100    292.61502   -1393.8033    485.83089    407.35009    210.26525    38614.337 
  988200    304.08314   -1454.7721    494.81164    406.91199    794.97183    38614.337 
  988300    314.58963   -1419.2373    482.55905    477.42155    330.03735    38614.337 
  988400    301.07226   -1441.5131    478.28162    390.10688    20.820702    38614.337 
  988500    310.91315   -1449.5439    477.28787    425.31776    118.71517    38614.337 
  988600    295.02422   -1425.0214    474.45171    375.58233    27.807958    38614.337 
  988700    291.93562   -1421.0934    492.14527    383.32046   -24.443176    38614.337 
  988800    309.47077   -1451.3617    481.92657    421.65504    66.237202    38614.337 
  988900    296.10557   -1445.3304    483.94062    369.62303   -208.25528    38614.337 
  989000    301.43156   -1424.5565    470.32477    400.72165   -207.71988    38614.337 
  989100    298.51835   -1397.1287    458.12599     402.8557    62.675283    38614.337 
  989200    308.40707   -1447.1682    513.50791    452.64844    194.04932    38614.337 
  989300    292.24119   -1465.7616    454.38165    302.26214     347.3032    38614.337 
  989400    297.44496   -1439.5696    468.82716    366.29091    179.78288    38614.337 
  989500    296.17085   -1482.2023    480.86935    329.97325    46.174897    38614.337 
  989600    304.89345   -1445.7574    478.35239    403.10983    12.483481    38614.337 
  989700     302.6817    -1449.158    471.05625    382.47116    155.57662    38614.337 
  989800    295.23487   -1477.8125    463.43462    312.72103   -71.247177    38614.337 
  989900    300.36445   -1498.0597    519.31505    371.41207    329.61745    38614.337 
  990000    303.82917   -1471.1605      483.892     378.4623    413.86108    38614.337 
  990100    302.85014    -1475.868    447.39921    332.86127   -273.97541    38614.337 
  990200    297.42978   -1434.8602    468.36989    370.47483    298.02929    38614.337 
  990300    294.58403   -1455.7513    468.17882    336.60084   -229.13858    38614.337 
  990400    300.93726   -1475.0849    465.45625    343.10288    179.01317    38614.337 
  990500     296.0747   -1470.6031    473.57377    333.84468    337.96297    38614.337 
  990600    304.28248    -1494.235    472.41809    345.95151    195.21742    38614.337 
  990700    291.35677   -1472.7869    500.64567    337.52535    199.74213    38614.337 
  990800    302.26124   -1448.8461    480.44539    390.28211   -3.0915293    38614.337 
  990900    300.81989   -1428.7755    480.90305    404.33146   -304.09725    38614.337 
  991000    299.33927   -1397.3596    460.04305    408.23187    -88.24964    38614.337 
  991100    296.54072    -1424.803    470.77164    378.93744   -235.99135    38614.337 
  991200    292.93797   -1399.2143    493.68369    411.24362   -367.75733    38614.337 
  991300    300.12946   -1419.5736    479.71393    409.24069    160.53491    38614.337 
  991400     290.9451   -1430.8873    501.15265    378.08149   -201.47892    38614.337 
  991500    296.40212    -1449.087    475.86093    359.11975   -379.12094    38614.337 
  991600    303.17356   -1413.1715    485.56552    435.17786     303.3533    38614.337 
  991700    310.53692   -1465.3168    496.79609    427.36181     262.3237    38614.337 
  991800    305.07025   -1457.0865    468.28413    382.50722     137.1875    38614.337 
  991900    300.03093   -1406.8281    495.21078    437.04014   -286.30296    38614.337 
  992000    307.27054   -1411.8807    474.86794    444.18724   -527.20476    38614.337 
  992100    296.02077   -1502.3543    458.42085    286.69814   -245.73291    38614.337 
  992200    287.95152   -1466.9722    473.31173    300.69929    347.87194    38614.337 
  992300    295.83944   -1460.8419    500.30182    369.27645    358.66059    38614.337 
  992400     304.3728   -1438.7114    498.85406    428.31715    551.70421    38614.337 
  992500    306.60377   -1464.5981    476.74072    390.34544    398.72987    38614.337 
  992600    302.27909   -1427.6585    503.08491    434.18952    228.49383    38614.337 
  992700    301.57712   -1428.5208    464.81719    391.90413    46.545321    38614.337 
  992800    301.35239   -1441.8152    478.64836    391.43075   -162.82743    38614.337 
  992900     306.9695   -1435.8507    492.00836    436.00449    304.02069    38614.337 
  993000    303.56442   -1438.7629    461.35518    387.13306    462.23792    38614.337 
  993100    300.23045   -1459.2676    495.40763     385.6944    275.96714    38614.337 
  993200    288.49824   -1465.6289    481.11861    312.30705    627.23209    38614.337 
  993300    306.71452    -1461.498    465.60587    382.80852    682.66967    38614.337 
  993400     299.4626   -1416.9509    489.83788    418.98977    744.57916    38614.337 
  993500    305.11207    -1447.402    487.77843    411.87396    706.32334    38614.337 
  993600    291.24845    -1454.997    473.74345     327.9261    533.44167    38614.337 
  993700    302.01778    -1446.786    484.06489    394.86744    557.36245    38614.337 
  993800    295.18868   -1474.0609    477.51646    330.34689    48.629995    38614.337 
  993900    302.95199   -1456.8718    501.36195    406.27802   -7.7714779    38614.337 
  994000    283.97705   -1450.6276    458.09935    283.96608   -813.98954    38614.337 
  994100    298.02581   -1443.9538    485.32978    381.02031   -308.96995    38614.337 
  994200    296.77763   -1409.1154    495.56321    420.48156   -113.95993    38614.337 
  994300    298.68194   -1416.0025    497.13483    423.72601    277.37586    38614.337 
  994400    312.52402   -1445.5666    461.02996    420.27804    933.40477    38614.337 
  994500    300.42072    -1464.625    494.01504    379.79967    433.41762    38614.337 
  994600    303.15642   -1425.8882    493.88148    430.70004    1037.5233    38614.337 
  994700     297.3024   -1425.1253    493.08151    404.34877    249.07551    38614.337 
  994800    313.05257    -1459.743    491.02533    438.47286    262.30685    38614.337 
  994900    306.57551    -1499.592    476.23934    354.72316    200.39737    38614.337 
  995000    296.79446   -1473.2081    453.02186    313.92317   -461.15927    38614.337 
  995100    290.58142   -1476.6323    481.38436    310.93342   -416.32864    38614.337 
  995200    310.51654   -1443.8556    469.86129    421.79662    148.09301    38614.337 
  995300    295.75416   -1460.5217    484.06877    352.98025    569.59406    38614.337 
  995400     297.6253   -1407.1547    481.02526    411.71455   -79.211576    38614.337 
  995500    308.48816   -1433.2858     471.6058    424.99333     482.0694    38614.337 
  995600    303.33001   -1458.3397    466.32079    371.46818    339.90193    38614.337 
  995700    290.35414   -1419.5587    480.06194    365.66298    23.998664    38614.337 
  995800    298.43612   -1460.2393    476.54474    357.79417   -127.51521    38614.337 
  995900    299.67129   -1485.4529    468.44321    330.03117    -297.2331    38614.337 
  996000    294.03296   -1497.5694    452.33444    276.46134   -18.925521    38614.337 
  996100    299.01581   -1476.3673    468.68829    336.41544   -91.881413    38614.337 
  996200    304.92976   -1417.2854    496.41702    449.80964    98.467392    38614.337 
  996300     294.9643   -1404.1234    467.34805    389.10739   -16.476699    38614.337 
  996400    297.99121   -1449.4925    502.57195     392.5683   -427.41894    38614.337 
  996500    293.37277   -1423.3073    494.07189    389.49331   -764.89095    38614.337 
  996600    299.42611   -1415.6697    491.45741    421.72649   -500.00832    38614.337 
  996700     303.2994   -1463.3303    463.14514    363.16433   -444.69702    38614.337 
  996800    298.71182   -1450.7921    483.71613    375.65209   -596.77747    38614.337 
  996900    296.30793   -1467.9236     486.2341    350.23293   0.82683723    38614.337 
  997000     293.0975   -1429.1751    482.44214     370.7584   -291.81344    38614.337 
  997100    299.52355   -1497.2119    468.50355    317.66842   -402.19182    38614.337 
  997200    289.75616   -1474.0006    449.84068    278.31187   -642.63928    38614.337 
  997300    301.69163   -1459.2496     456.8469    353.71974   -99.465116    38614.337 
  997400    287.21431   -1435.3416    479.44038    335.14481   -324.53637    38614.337 
  997500    296.70554   -1456.6942    449.27103    326.28653   -570.98378    38614.337 
  997600    286.29228   -1482.7147     486.7356    290.92237   -305.05408    38614.337 
  997700    299.79015   -1473.0437    479.74849    354.27999   0.36480303    38614.337 
  997800    303.95598   -1451.9622    481.24948    395.58815    319.49017    38614.337 
  997900    300.73266   -1483.4543     468.3836    336.74111    -186.4628    38614.337 
  998000    293.79939   -1459.3452    477.60885    338.90998    53.746873    38614.337 
  998100     304.6412   -1443.7129    484.44487    410.11288    19.657798    38614.337 
  998200      307.937   -1479.8869    482.32719    386.63609    474.77235    38614.337 
  998300    306.76123   -1482.6292    494.45793    390.73935    1128.1107    38614.337 
  998400    301.16667   -1516.8393    505.34746    342.27093    547.47532    38614.337 
  998500    300.82126   -1485.7571    470.18078     336.6338    215.37675    38614.337 
  998600    300.32138   -1499.0133    483.70256    334.65238    240.44636    38614.337 
  998700    290.54918   -1450.7574    505.93039    361.20943    57.737632    38614.337 
  998800    300.82751   -1470.3106    477.61279    359.54035    540.30074    38614.337 
  998900    289.18837   -1497.6328    502.03163    304.31831    119.02119    38614.337 
  999000    294.16492   -1488.6903    473.95787    307.55695    10.828541    38614.337 
  999100    308.20211   -1485.9146    486.61031    386.08312   -321.34368    38614.337 
  999200    288.42434   -1463.0574    482.41995     315.8477   -572.05937    38614.337 
  999300    305.52412   -1490.2839    488.15098    371.21679   -147.09175    38614.337 
  999400    301.69828   -1471.8907    479.44105    363.70266    560.20787    38614.337 
  999500    302.99541   -1472.7094    474.60046    363.87415    64.105741    38614.337 
  999600    305.85188   -1470.9076    482.22248    386.13794   -826.12395    38614.337 
  999700    294.73726   -1485.3596    490.49704    329.99955   -247.33265    38614.337 
  999800    299.21879   -1506.0973    490.19735    329.10696    -53.18968    38614.337 
  999900    295.00633   -1487.2975    488.11486    326.88904    369.24099    38614.337 
 1000000    307.94121   -1488.2558    483.88614      379.845    627.32824    38614.337 
 1000100    305.39072   -1558.6687    473.62065    287.70208     652.9702    38614.337 
 1000200    301.04185   -1470.8945    507.65293    389.96001    757.73463    38614.337 
 1000300    308.63214   -1498.5383    480.36045    369.14266    160.31496    38614.337 
 1000400    297.03418   -1510.3401    489.36769     314.2145    106.63497    38614.337 
 1000500    293.39484    -1537.346    482.84605    264.32796    259.85497    38614.337 
 1000600    296.66733   -1505.6041    514.51473    342.44849    606.36157    38614.337 
 1000700    292.82966   -1472.1375    494.36579    338.51562     112.1499    38614.337 
 1000800    299.25288   -1457.1988    518.34473    406.30602    495.13839    38614.337 
 1000900    304.09509   -1437.2392    505.49961    435.18658    47.805837    38614.337 
 1001000    304.10464   -1428.8671     494.4731    432.57509   -335.17929    38614.337 
 1001100    298.51133   -1468.4086    512.86275    386.28092    127.87944    38614.337 
 1001200    308.92788   -1467.1284    499.81567    421.33705     354.4408    38614.337 
 1001300    288.86387   -1480.3278     509.7179    327.85101     647.5018    38614.337 
 1001400    308.31145   -1482.5867     513.4224     416.7146    1003.2928    38614.337 
 1001500    303.00882   -1491.1465    490.65729    361.55414    70.337456    38614.337 
 1001600    298.35793   -1464.9897    490.03645    366.18397    50.444068    38614.337 
 1001700     291.4656   -1505.2415    486.79568    291.70993   -495.82837    38614.337 
 1001800    306.63767   -1520.6341     514.7769    372.49804   -417.87791    38614.337 
 1001900    287.69256   -1516.2576    473.70457    250.64271   -314.77941    38614.337 
 1002000    290.58659     -1537.55    488.37336    257.02795      411.921    38614.337 
 1002100    304.17718   -1512.6021    475.98624    330.67925    631.48586    38614.337 
 1002200    291.27646   -1527.2958    535.53762    317.54748    741.70188    38614.337 
 1002300    295.64837    -1526.546    487.41868    289.83033     421.7926    38614.337 
 1002400    305.07293   -1491.3622    493.03655    372.99598    269.72223    38614.337 
 1002500    306.08522    -1478.534    492.21263    389.55057     321.0331    38614.337 
 1002600    303.98506   -1509.4114    521.26439    378.28452    209.65794    38614.337 
 1002700    298.35418   -1548.2973    495.46853    288.29167  -0.95350698    38614.337 
 1002800    307.96396   -1562.5587    472.53795    294.29621     125.7408    38614.337 
 1002900     300.2702   -1515.9672    510.58551    344.35141    356.73361    38614.337 
 1003000    299.98008   -1485.4905      524.454    387.39241   -68.501582    38614.337 
 1003100    292.77391   -1512.2868    507.19584    310.94577   -220.75747    38614.337 
 1003200    302.10838   -1540.9444    496.09074    313.14215   -58.001646    38614.337 
 1003300     308.0915    -1514.222    498.15179       368.82    118.63499    38614.337 
 1003400    298.94828   -1499.1375    514.30023    358.95358   -170.35112    38614.337 
 1003500    306.81282   -1517.7148    494.33587    355.76355    64.030162    38614.337 
 1003600    304.55274   -1523.2908    502.17601    347.86854   -279.89648    38614.337 
 1003700     300.2213   -1455.0799    507.47595    401.90924   -421.41054    38614.337 
 1003800    305.66706   -1489.9887    499.39673    383.40024   -480.54291    38614.337 
 1003900    294.97437   -1447.3232    503.57636    382.18112   -167.59082    38614.337 
 1004000    300.96585   -1466.5803    510.14024    396.42002   -292.25222    38614.337 
 1004100    291.87877   -1463.4841    507.25406    355.78297   -333.96028    38614.337 
 1004200    293.85561   -1473.6867    500.39474    347.60707   -453.43703    38614.337 
 1004300    298.20571   -1495.2451    491.18764    336.39554   -108.54499    38614.337 
 1004400    297.80696   -1480.5373    490.67348    348.79682    463.35481    38614.337 
 1004500    302.15063    -1471.869    516.68527     403.0019    191.93192    38614.337 
 1004600    315.76644   -1443.3136    503.88921    479.96516    452.42287    38614.337 
 1004700    290.23825   -1472.9161    488.96448    320.68716   -111.48644    38614.337 
 1004800    303.82473   -1480.6065    486.04838    371.15273     204.7294    38614.337 
 1004900    302.79099   -1491.5085    518.80905    388.36471     119.2583    38614.337 
 1005000    295.38171   -1547.4151    512.81517    293.15905    819.42173    38614.337 
 1005100    296.64767   -1505.9389    492.96472    320.47534    244.83702    38614.337 
 1005200    286.30384   -1567.8964    526.64979    245.70681    914.46737    38614.337 
 1005300    307.60037   -1534.8024    499.43161    347.31179    755.84998    38614.337 
 1005322    298.11989   -1519.1527    514.58498    335.49956    529.03888    38614.337 
Loop time of 608.456 on 32 procs for 1000000 steps with 1509 atoms

Performance: 141.999 ns/day, 0.169 hours/ns, 1643.503 timesteps/s
100.0% CPU use with 32 MPI tasks x no OpenMP threads

MPI task timing breakdown:
Section |  min time  |  avg time  |  max time  |%varavg| %total
---------------------------------------------------------------
Pair    | 253.7      | 268.59     | 290.49     |  52.9 | 44.14
Bond    | 1.4206     | 1.5355     | 1.6415     |   4.1 |  0.25
Neigh   | 39.619     | 39.682     | 39.744     |   0.7 |  6.52
Comm    | 264.8      | 286.68     | 301.6      |  51.1 | 47.12
Output  | 0.39036    | 0.40636    | 0.82864    |  11.9 |  0.07
Modify  | 8.678      | 8.7961     | 8.9408     |   2.0 |  1.45
Other   |            | 2.766      |            |       |  0.45

Nlocal:        47.1562 ave          89 max          16 min
Histogram: 3 3 7 1 6 2 5 3 1 1
Nghost:        1916.69 ave        1973 max        1854 min
Histogram: 2 2 2 6 3 4 3 5 1 4
Neighs:        5204.88 ave       12050 max        1188 min
Histogram: 4 7 3 3 6 3 4 0 1 1

Total # of neighbors = 166556
Ave neighs/atom = 110.37508
Ave special neighs/atom = 2.0172300
Neighbor list builds = 49857
Dangerous builds = 0

# Output the system volume
variable v equal vol
print 'The system volume is $v'
The system volume is 38614.3369426891

# Outputs
variable A equal xhi-xlo
variable B equal yhi-ylo
variable C equal zhi-zlo
variable D equal xy
variable E equal xz
variable F equal yz
print 'Lattice vectors'
Lattice vectors
print '$A 0 0'
33.7999605938551 0 0
print '$D $B 0'
0 33.7999605938551 0
print '$E $F $C'
0 0 33.7999605938551
Total wall time: 0:10:13
