LAMMPS data file
 1522 atoms
 1021 bonds
 536 angles
 45 dihedrals
 4 impropers
 8 atom types
 10 bond types
 5 angle types
 5 dihedral types
 1 improper types
 0 15 xlo xhi
 0 15 ylo yhi
 0 15 zlo zhi
 0 0 0 xy xz yz

# Atom types
#
# 1 C_3
# 2 N_2
# 3 C_R
# 4 C_2
# 5 O_2
# 6 H_
# 7 H__HB
# 8 O_3

# Bond Coeffs
#
# 1 C_3*C_3
# 2 C_3*H_
# 3 N_2*C_2
# 4 C_3*N_2
# 5 N_2*H__HB
# 6 C_R*C_R
# 7 C_R*C_2
# 8 C_R*H_
# 9 C_2*O_2
# 10 O_3*H__HB

# Angle Coeffs
#
# 1 C_3
# 2 N_2
# 3 C_R
# 4 C_2
# 5 O_3

# Dihedral Coeffs
#
# 1 A1
# 2 C1
# 3 B1
# 4 D1
# 5 E1

# Inversion Coeffs
#
# 1 1

 Masses

 1 12.01
 2 14.01
 3 12.01
 4 12.01
 5 16
 6 1.01
 7 1.01
 8 16

 Atoms # full

1 1 1 0 9.30867909423507 11.6284448910123 3.47037543714138
2 1 1 0 9.89743064090617 10.4534778129939 4.28295611736048
3 1 1 0 11.204898043585 9.88983625809717 3.662183277647
4 1 2 0 10.9886571288297 7.57470172737751 4.4861119465591
5 1 3 0 10.3315472385351 5.36460481282862 5.05774916576248
6 1 3 0 10.5004427268595 4.11537395118434 5.68897692841172
7 1 4 0 11.2559276030481 6.42097713698558 5.14379673666456
8 1 5 0 12.3095143826505 6.30466390231062 5.81619875873657
9 1 1 0 11.8296201370269 8.73018610182043 4.47792175351586
10 1 6 0 10.0211517169679 12.4543442604356 3.42308428107327
11 1 6 0 8.3939536924214 11.9853568230227 3.94751863584109
12 1 6 0 9.0685864087675 11.3069553553096 2.45489973048037
13 1 6 0 9.14608164247147 9.66143064698202 4.33769010464222
14 1 6 0 10.0991169932875 10.8008212333644 5.29984257788022
15 1 6 0 11.9412427527817 10.696195264094 3.59930726723174
16 1 6 0 11.0051878563898 9.54071225247258 2.64504326770387
17 1 7 0 10.1644390166383 7.6178102371643 3.97536530690336
18 1 6 0 9.49607064382476 5.52318700993786 4.49131568648078
19 1 6 0 11.3708125166952 3.97335865664741 6.21094544763381
20 1 6 0 12.0126975263692 9.0644173644521 5.50294441794395
21 1 6 0 12.7898872733762 8.46456554164805 4.02738449106001
22 1 6 0 9.58872383920402 3.03379592843211 5.6506599531702
23 2 7 0 -0.0893562538828701 8.65599856287241 1.02050617919303
24 2 8 0 0.87064374611713 8.65599856287241 1.02050617919303
25 2 7 0 1.11064374611713 7.72599856287241 1.02050617919303
26 3 7 0 10.5539163252991 7.87160286371596 11.6078658832703
27 3 8 0 11.5139163252991 7.87160286371596 11.6078658832703
28 3 7 0 11.7539163252991 6.94160286371596 11.6078658832703
29 4 7 0 9.77914817791432 1.63322189165279 4.84493747237138
30 4 8 0 10.7391481779143 1.63322189165279 4.84493747237138
31 4 7 0 10.9791481779143 0.703221891652793 4.84493747237138
32 5 7 0 10.6002033354901 2.77937702177092 1.77199822501279
33 5 8 0 11.5602033354901 2.77937702177092 1.77199822501279
34 5 7 0 11.8002033354901 1.84937702177092 1.77199822501279
35 6 7 0 6.2557701898925 3.33582841832191 3.46135136671364
36 6 8 0 7.2157701898925 3.33582841832191 3.46135136671364
37 6 7 0 7.4557701898925 2.40582841832191 3.46135136671364
38 7 7 0 3.39479664151557 5.20540503011085 11.1645269498695
39 7 8 0 4.35479664151557 5.20540503011085 11.1645269498695
40 7 7 0 4.59479664151557 4.27540503011085 11.1645269498695
41 8 7 0 0.439977157367393 3.95534244989045 2.1333205292467
42 8 8 0 1.39997715736739 3.95534244989045 2.1333205292467
43 8 7 0 1.63997715736739 3.02534244989045 2.1333205292467
44 9 7 0 14.0761975308135 0.843250777516514 9.47125579579733
45 9 8 0 15.0361975308135 0.843250777516514 9.47125579579733
46 9 7 0 15.2761975308135 -0.086749222483486 9.47125579579733
47 10 7 0 0.637232825830579 13.5923380734771 14.5692432043143
48 10 8 0 1.59723282583058 13.5923380734771 14.5692432043143
49 10 7 0 1.83723282583058 12.6623380734771 14.5692432043143
50 11 7 0 10.044583615819 12.8854199828953 11.490435503656
51 11 8 0 11.004583615819 12.8854199828953 11.490435503656
52 11 7 0 11.244583615819 11.9554199828953 11.490435503656
53 12 7 0 1.24977906161919 9.36296612414531 8.73872872791253
54 12 8 0 2.20977906161919 9.36296612414531 8.73872872791253
55 12 7 0 2.44977906161919 8.43296612414531 8.73872872791253
56 13 7 0 9.59634217011742 14.1276398957148 2.48341760365292
57 13 8 0 10.5563421701174 14.1276398957148 2.48341760365292
58 13 7 0 10.7963421701174 13.1976398957148 2.48341760365292
59 14 7 0 11.9937872809544 10.2908275257237 9.66309230891056
60 14 8 0 12.9537872809544 10.2908275257237 9.66309230891056
61 14 7 0 13.1937872809544 9.36082752572373 9.66309230891056
62 15 7 0 6.79440024934709 6.48189374635927 12.5909131241497
63 15 8 0 7.75440024934709 6.48189374635927 12.5909131241497
64 15 7 0 7.99440024934709 5.55189374635927 12.5909131241497
65 16 7 0 3.84629774649628 1.47154522984289 6.72871204675175
66 16 8 0 4.80629774649628 1.47154522984289 6.72871204675175
67 16 7 0 5.04629774649628 0.541545229842886 6.72871204675175
68 17 7 0 3.6024080116488 6.828284996273 13.9363029878587
69 17 8 0 4.5624080116488 6.828284996273 13.9363029878587
70 17 7 0 4.8024080116488 5.898284996273 13.9363029878587
71 18 7 0 13.5235670702253 0.591795742921531 7.60951495380141
72 18 8 0 14.4835670702253 0.591795742921531 7.60951495380141
73 18 7 0 14.7235670702253 -0.338204257078469 7.60951495380141
74 19 7 0 13.0977761400584 9.90738490753807 7.90813330211677
75 19 8 0 14.0577761400584 9.90738490753807 7.90813330211677
76 19 7 0 14.2977761400584 8.97738490753807 7.90813330211677
77 20 7 0 12.7492265465856 12.2942053519096 14.5641544321552
78 20 8 0 13.7092265465856 12.2942053519096 14.5641544321552
79 20 7 0 13.9492265465856 11.3642053519096 14.5641544321552
80 21 7 0 2.66901379960589 10.3942719525099 6.84897162602283
81 21 8 0 3.62901379960589 10.3942719525099 6.84897162602283
82 21 7 0 3.86901379960589 9.46427195250988 6.84897162602283
83 22 7 0 -0.295781207531691 12.2586316747498 13.8555356359575
84 22 8 0 0.664218792468309 12.2586316747498 13.8555356359575
85 22 7 0 0.904218792468309 11.3286316747498 13.8555356359575
86 23 7 0 2.4830975993257 2.81742774340324 9.15237009292468
87 23 8 0 3.4430975993257 2.81742774340324 9.15237009292468
88 23 7 0 3.6830975993257 1.88742774340324 9.15237009292468
89 24 7 0 1.19253846511245 12.9519486710802 9.74909757496789
90 24 8 0 2.15253846511245 12.9519486710802 9.74909757496789
91 24 7 0 2.39253846511245 12.0219486710802 9.74909757496789
92 25 7 0 2.09705586821772 1.02255801827647 1.86534873093478
93 25 8 0 3.05705586821772 1.02255801827647 1.86534873093478
94 25 7 0 3.29705586821772 0.0925580182764679 1.86534873093478
95 26 7 0 10.8760418607574 8.43213023658842 14.9534728867002
96 26 8 0 11.8360418607574 8.43213023658842 14.9534728867002
97 26 7 0 12.0760418607574 7.50213023658842 14.9534728867002
98 27 7 0 2.96089062860236 10.0582108010445 13.8839427405037
99 27 8 0 3.92089062860236 10.0582108010445 13.8839427405037
100 27 7 0 4.16089062860236 9.12821080104448 13.8839427405037
101 28 7 0 9.96953306064941 0.837987710665911 0.114863662747666
102 28 8 0 10.9295330606494 0.837987710665911 0.114863662747666
103 28 7 0 11.1695330606494 -0.0920122893340886 0.114863662747666
104 29 7 0 2.32906691308133 6.62465376238339 11.5487357997335
105 29 8 0 3.28906691308133 6.62465376238339 11.5487357997335
106 29 7 0 3.52906691308133 5.69465376238339 11.5487357997335
107 30 7 0 11.4714940571878 8.194048842825 4.85917225945741
108 30 8 0 12.4314940571878 8.194048842825 4.85917225945741
109 30 7 0 12.6714940571878 7.264048842825 4.85917225945741
110 31 7 0 12.3178657579422 4.56918836263008 12.0399805193301
111 31 8 0 13.2778657579422 4.56918836263008 12.0399805193301
112 31 7 0 13.5178657579422 3.63918836263008 12.0399805193301
113 32 7 0 8.8391743150726 14.7249268313777 14.74201302859
114 32 8 0 9.7991743150726 14.7249268313777 14.74201302859
115 32 7 0 10.0391743150726 13.7949268313777 14.74201302859
116 33 7 0 0.723205357063562 5.48445077886805 2.88644957123324
117 33 8 0 1.68320535706356 5.48445077886805 2.88644957123324
118 33 7 0 1.92320535706356 4.55445077886805 2.88644957123324
119 34 7 0 9.05745968964882 0.8998701492697 3.72751872637309
120 34 8 0 10.0174596896488 0.8998701492697 3.72751872637309
121 34 7 0 10.2574596896488 -0.0301298507303 3.72751872637309
122 35 7 0 3.77937879340723 9.83099234680645 11.8363358045463
123 35 8 0 4.73937879340723 9.83099234680645 11.8363358045463
124 35 7 0 4.97937879340723 8.90099234680645 11.8363358045463
125 36 7 0 1.31381467144936 14.2805436490476 7.762465296546
126 36 8 0 2.27381467144936 14.2805436490476 7.762465296546
127 36 7 0 2.51381467144936 13.3505436490476 7.762465296546
128 37 7 0 3.1602446576301 12.1547290093172 11.9203569029924
129 37 8 0 4.1202446576301 12.1547290093172 11.9203569029924
130 37 7 0 4.3602446576301 11.2247290093172 11.9203569029924
131 38 7 0 -0.129394639078528 12.9547797112633 0.0382598571013659
132 38 8 0 0.830605360921472 12.9547797112633 0.0382598571013659
133 38 7 0 1.07060536092147 12.0247797112633 0.0382598571013659
134 39 7 0 2.0354057026282 10.567014738163 11.2278220744338
135 39 8 0 2.9954057026282 10.567014738163 11.2278220744338
136 39 7 0 3.2354057026282 9.63701473816298 11.2278220744338
137 40 7 0 12.1392143766582 13.5519120671693 6.81655550957657
138 40 8 0 13.0992143766582 13.5519120671693 6.81655550957657
139 40 7 0 13.3392143766582 12.6219120671693 6.81655550957657
140 41 7 0 13.4258116122521 12.5442744458001 5.31840626732446
141 41 8 0 14.3858116122521 12.5442744458001 5.31840626732446
142 41 7 0 14.6258116122521 11.6142744458001 5.31840626732446
143 42 7 0 7.88647185822018 7.90455933352001 12.6634564111009
144 42 8 0 8.84647185822018 7.90455933352001 12.6634564111009
145 42 7 0 9.08647185822018 6.97455933352001 12.6634564111009
146 43 7 0 13.5731324872188 11.4354424392246 6.51180075597949
147 43 8 0 14.5331324872188 11.4354424392246 6.51180075597949
148 43 7 0 14.7731324872188 10.5054424392246 6.51180075597949
149 44 7 0 1.89871913331561 13.1203422094136 1.03205877123401
150 44 8 0 2.85871913331561 13.1203422094136 1.03205877123401
151 44 7 0 3.09871913331561 12.1903422094136 1.03205877123401
152 45 7 0 8.30344075846486 8.79152900929563 3.55611699284054
153 45 8 0 9.26344075846486 8.79152900929563 3.55611699284054
154 45 7 0 9.50344075846486 7.86152900929563 3.55611699284054
155 46 7 0 8.94167867998592 8.51022753323428 5.5556902626995
156 46 8 0 9.90167867998593 8.51022753323428 5.5556902626995
157 46 7 0 10.1416786799859 7.58022753323428 5.5556902626995
158 47 7 0 11.526311850613 2.42100162006915 12.7541185193695
159 47 8 0 12.486311850613 2.42100162006915 12.7541185193695
160 47 7 0 12.726311850613 1.49100162006915 12.7541185193695
161 48 7 0 2.07203594313003 5.7741237820033 3.59608313650824
162 48 8 0 3.03203594313003 5.7741237820033 3.59608313650824
163 48 7 0 3.27203594313003 4.8441237820033 3.59608313650824
164 49 7 0 13.4377940038405 10.6476479621511 11.9541520869825
165 49 8 0 14.3977940038405 10.6476479621511 11.9541520869825
166 49 7 0 14.6377940038405 9.7176479621511 11.9541520869825
167 50 7 0 3.98031978562474 12.9303069917392 13.2652465451974
168 50 8 0 4.94031978562474 12.9303069917392 13.2652465451974
169 50 7 0 5.18031978562474 12.0003069917392 13.2652465451974
170 51 7 0 10.3755685505178 2.89327193907462 7.55750086857006
171 51 8 0 11.3355685505178 2.89327193907462 7.55750086857006
172 51 7 0 11.5755685505178 1.96327193907462 7.55750086857006
173 52 7 0 2.79223553298041 3.11570736154914 14.0321000211406
174 52 8 0 3.75223553298041 3.11570736154914 14.0321000211406
175 52 7 0 3.99223553298041 2.18570736154914 14.0321000211406
176 53 7 0 6.58082890950143 14.8967375284433 7.18969754409045
177 53 8 0 7.54082890950143 14.8967375284433 7.18969754409045
178 53 7 0 7.78082890950143 13.9667375284433 7.18969754409045
179 54 7 0 8.27154133396223 9.6402768887952 5.75569496839307
180 54 8 0 9.23154133396223 9.6402768887952 5.75569496839307
181 54 7 0 9.47154133396223 8.7102768887952 5.75569496839307
182 55 7 0 4.21487432599068 7.78232495690696 3.32438598386943
183 55 8 0 5.17487432599068 7.78232495690696 3.32438598386943
184 55 7 0 5.41487432599068 6.85232495690696 3.32438598386943
185 56 7 0 7.87936624998227 14.4035254783835 0.63442696002312
186 56 8 0 8.83936624998227 14.4035254783835 0.63442696002312
187 56 7 0 9.07936624998227 13.4735254783835 0.63442696002312
188 57 7 0 4.24676536160521 13.8683067173138 11.2140546762384
189 57 8 0 5.20676536160521 13.8683067173138 11.2140546762384
190 57 7 0 5.44676536160521 12.9383067173138 11.2140546762384
191 58 7 0 13.0769402968884 2.65762437059544 14.1201171395369
192 58 8 0 14.0369402968884 2.65762437059544 14.1201171395369
193 58 7 0 14.2769402968884 1.72762437059544 14.1201171395369
194 59 7 0 4.93012548468076 5.82338975201361 0.62858141027391
195 59 8 0 5.89012548468076 5.82338975201361 0.62858141027391
196 59 7 0 6.13012548468076 4.89338975201361 0.62858141027391
197 60 7 0 0.396601245012134 10.7183926288877 1.26183279091492
198 60 8 0 1.35660124501213 10.7183926288877 1.26183279091492
199 60 7 0 1.59660124501213 9.78839262888767 1.26183279091492
200 61 7 0 14.2588794061169 8.19827184122056 7.14257644023746
201 61 8 0 15.2188794061169 8.19827184122056 7.14257644023746
202 61 7 0 15.4588794061169 7.26827184122056 7.14257644023746
203 62 7 0 9.08881509720348 9.2343097952567 14.2069103429094
204 62 8 0 10.0488150972035 9.2343097952567 14.2069103429094
205 62 7 0 10.2888150972035 8.3043097952567 14.2069103429094
206 63 7 0 7.05214708621614 5.8620532745868 7.75433728820644
207 63 8 0 8.01214708621614 5.8620532745868 7.75433728820644
208 63 7 0 8.25214708621614 4.9320532745868 7.75433728820644
209 64 7 0 -0.558024987839162 5.00841110403649 11.0684829822276
210 64 8 0 0.401975012160838 5.00841110403649 11.0684829822276
211 64 7 0 0.641975012160838 4.07841110403649 11.0684829822276
212 65 7 0 1.89533741606399 9.04898619553074 6.19168632198125
213 65 8 0 2.85533741606399 9.04898619553074 6.19168632198125
214 65 7 0 3.09533741606399 8.11898619553074 6.19168632198125
215 66 7 0 -0.487694090260193 7.8816112961527 0.648392750881612
216 66 8 0 0.472305909739807 7.8816112961527 0.648392750881612
217 66 7 0 0.712305909739807 6.9516112961527 0.648392750881612
218 67 7 0 2.22805672718212 6.53853020671755 3.52588556357659
219 67 8 0 3.18805672718212 6.53853020671755 3.52588556357659
220 67 7 0 3.42805672718212 5.60853020671755 3.52588556357659
221 68 7 0 6.65634610268287 4.65555465821177 11.4794059284031
222 68 8 0 7.61634610268287 4.65555465821177 11.4794059284031
223 68 7 0 7.85634610268287 3.72555465821177 11.4794059284031
224 69 7 0 9.01094242857769 13.8194686923549 1.94232457783073
225 69 8 0 9.97094242857769 13.8194686923549 1.94232457783073
226 69 7 0 10.2109424285777 12.8894686923549 1.94232457783073
227 70 7 0 2.96210439104587 12.1378326676227 11.7214931419585
228 70 8 0 3.92210439104587 12.1378326676227 11.7214931419585
229 70 7 0 4.16210439104587 11.2078326676227 11.7214931419585
230 71 7 0 1.48702276448719 5.71068669244647 9.83000171603635
231 71 8 0 2.44702276448719 5.71068669244647 9.83000171603635
232 71 7 0 2.68702276448719 4.78068669244647 9.83000171603635
233 72 7 0 8.81990849666297 15.0967162956391 1.60549337393604
234 72 8 0 9.77990849666297 15.0967162956391 1.60549337393604
235 72 7 0 10.019908496663 14.1667162956391 1.60549337393604
236 73 7 0 2.09845535268076 6.59088536555879 10.2056111034472
237 73 8 0 3.05845535268076 6.59088536555879 10.2056111034472
238 73 7 0 3.29845535268076 5.66088536555879 10.2056111034472
239 74 7 0 11.7727144905087 10.1064738868177 3.16948157502338
240 74 8 0 12.7327144905087 10.1064738868177 3.16948157502338
241 74 7 0 12.9727144905087 9.17647388681769 3.16948157502338
242 75 7 0 13.4667083392572 5.70474278804846 6.01733955438249
243 75 8 0 14.4267083392572 5.70474278804846 6.01733955438249
244 75 7 0 14.6667083392572 4.77474278804846 6.01733955438249
245 76 7 0 2.27012360628694 13.2564819817804 1.29502617521212
246 76 8 0 3.23012360628694 13.2564819817804 1.29502617521212
247 76 7 0 3.47012360628694 12.3264819817804 1.29502617521212
248 77 7 0 1.29325679663569 11.0035575790703 12.9714183777105
249 77 8 0 2.25325679663569 11.0035575790703 12.9714183777105
250 77 7 0 2.49325679663569 10.0735575790703 12.9714183777105
251 78 7 0 8.93873052715324 5.55477313039824 4.03119470458478
252 78 8 0 9.89873052715324 5.55477313039824 4.03119470458478
253 78 7 0 10.1387305271532 4.62477313039824 4.03119470458478
254 79 7 0 3.2928420945257 7.76881664333865 3.8637639360968
255 79 8 0 4.2528420945257 7.76881664333865 3.8637639360968
256 79 7 0 4.4928420945257 6.83881664333865 3.8637639360968
257 80 7 0 13.9195100816153 13.853210857315 13.2466856692918
258 80 8 0 14.8795100816153 13.853210857315 13.2466856692918
259 80 7 0 15.1195100816153 12.923210857315 13.2466856692918
260 81 7 0 0.382690194966272 13.1640153964423 13.3702759968583
261 81 8 0 1.34269019496627 13.1640153964423 13.3702759968583
262 81 7 0 1.58269019496627 12.2340153964423 13.3702759968583
263 82 7 0 4.44310950508341 11.4987587979436 13.0839352682233
264 82 8 0 5.40310950508341 11.4987587979436 13.0839352682233
265 82 7 0 5.64310950508341 10.5687587979436 13.0839352682233
266 83 7 0 9.06479095268995 11.7581852878816 6.18498717318289
267 83 8 0 10.0247909526899 11.7581852878816 6.18498717318289
268 83 7 0 10.2647909526899 10.8281852878816 6.18498717318289
269 84 7 0 4.68144623606466 3.4390758040268 5.50719768041745
270 84 8 0 5.64144623606466 3.4390758040268 5.50719768041745
271 84 7 0 5.88144623606466 2.5090758040268 5.50719768041745
272 85 7 0 9.32630105453543 10.5344831540156 13.6049464344978
273 85 8 0 10.2863010545354 10.5344831540156 13.6049464344978
274 85 7 0 10.5263010545354 9.60448315401562 13.6049464344978
275 86 7 0 9.54299271150492 11.8010679392051 9.95360027882271
276 86 8 0 10.5029927115049 11.8010679392051 9.95360027882271
277 86 7 0 10.7429927115049 10.8710679392051 9.95360027882271
278 87 7 0 4.55887693257071 1.96581383276731 8.74826906947419
279 87 8 0 5.51887693257071 1.96581383276731 8.74826906947419
280 87 7 0 5.75887693257071 1.03581383276731 8.74826906947419
281 88 7 0 7.69860476648435 4.76280648418702 1.78313443553634
282 88 8 0 8.65860476648435 4.76280648418702 1.78313443553634
283 88 7 0 8.89860476648435 3.83280648418702 1.78313443553634
284 89 7 0 7.45115852725692 9.63714002788998 13.9477540715598
285 89 8 0 8.41115852725692 9.63714002788998 13.9477540715598
286 89 7 0 8.65115852725692 8.70714002788998 13.9477540715598
287 90 7 0 6.81394893254153 0.791302828993648 8.93484979402274
288 90 8 0 7.77394893254153 0.791302828993648 8.93484979402274
289 90 7 0 8.01394893254153 -0.138697171006352 8.93484979402274
290 91 7 0 5.89903928616084 11.8849686735217 3.68442833307199
291 91 8 0 6.85903928616084 11.8849686735217 3.68442833307199
292 91 7 0 7.09903928616084 10.9549686735217 3.68442833307199
293 92 7 0 13.0533876903076 13.4553021883499 14.6156737755518
294 92 8 0 14.0133876903076 13.4553021883499 14.6156737755518
295 92 7 0 14.2533876903076 12.5253021883499 14.6156737755518
296 93 7 0 3.64343562556431 7.91185452294536 11.6873825888615
297 93 8 0 4.60343562556431 7.91185452294536 11.6873825888615
298 93 7 0 4.84343562556431 6.98185452294536 11.6873825888615
299 94 7 0 5.07299892531708 10.6745663394127 5.14387461938895
300 94 8 0 6.03299892531708 10.6745663394127 5.14387461938895
301 94 7 0 6.27299892531708 9.7445663394127 5.14387461938895
302 95 7 0 11.7948018985055 9.77119958302006 13.9419574965723
303 95 8 0 12.7548018985055 9.77119958302006 13.9419574965723
304 95 7 0 12.9948018985055 8.84119958302006 13.9419574965723
305 96 7 0 9.44192014329135 6.56964569975622 8.42664584401064
306 96 8 0 10.4019201432914 6.56964569975622 8.42664584401064
307 96 7 0 10.6419201432914 5.63964569975622 8.42664584401064
308 97 7 0 6.74220096247271 3.91375502961688 1.36542506399564
309 97 8 0 7.70220096247271 3.91375502961688 1.36542506399564
310 97 7 0 7.94220096247271 2.98375502961688 1.36542506399564
311 98 7 0 13.3557981792558 0.994531686129049 14.2860326904338
312 98 8 0 14.3157981792558 0.994531686129049 14.2860326904338
313 98 7 0 14.5557981792558 0.0645316861290484 14.2860326904338
314 99 7 0 10.5296829649899 9.42665436346084 3.54067812790163
315 99 8 0 11.4896829649899 9.42665436346084 3.54067812790163
316 99 7 0 11.7296829649899 8.49665436346084 3.54067812790163
317 100 7 0 8.15746863299981 4.56695549696684 12.0585889974609
318 100 8 0 9.11746863299981 4.56695549696684 12.0585889974609
319 100 7 0 9.35746863299981 3.63695549696684 12.0585889974609
320 101 7 0 1.23931520895101 1.04764264117926 12.2550604306161
321 101 8 0 2.19931520895101 1.04764264117926 12.2550604306161
322 101 7 0 2.43931520895101 0.117642641179264 12.2550604306161
323 102 7 0 10.1268018122949 9.38657699193806 0.638762289891019
324 102 8 0 11.0868018122949 9.38657699193806 0.638762289891019
325 102 7 0 11.3268018122949 8.45657699193806 0.638762289891019
326 103 7 0 11.6313492720667 13.6340541245323 8.84521007188596
327 103 8 0 12.5913492720667 13.6340541245323 8.84521007188596
328 103 7 0 12.8313492720667 12.7040541245323 8.84521007188596
329 104 7 0 0.237324060145766 0.831446242928505 1.9804636167828
330 104 8 0 1.19732406014577 0.831446242928505 1.9804636167828
331 104 7 0 1.43732406014577 -0.0985537570714951 1.9804636167828
332 105 7 0 10.2462738454062 5.10826622176915 11.580019290559
333 105 8 0 11.2062738454062 5.10826622176915 11.580019290559
334 105 7 0 11.4462738454062 4.17826622176915 11.580019290559
335 106 7 0 14.0281537540443 5.53224398562685 0.668386198813096
336 106 8 0 14.9881537540443 5.53224398562685 0.668386198813096
337 106 7 0 15.2281537540443 4.60224398562685 0.668386198813096
338 107 7 0 3.85808528328314 3.04116988013498 5.34340371494181
339 107 8 0 4.81808528328314 3.04116988013498 5.34340371494181
340 107 7 0 5.05808528328314 2.11116988013498 5.34340371494181
341 108 7 0 13.0445351502579 14.1076596143562 3.4416681015864
342 108 8 0 14.0045351502579 14.1076596143562 3.4416681015864
343 108 7 0 14.2445351502579 13.1776596143562 3.4416681015864
344 109 7 0 6.47111866434105 1.58975955139846 13.4022135171108
345 109 8 0 7.43111866434105 1.58975955139846 13.4022135171108
346 109 7 0 7.67111866434105 0.659759551398456 13.4022135171108
347 110 7 0 2.71516324879602 14.5122814857773 6.53175291256048
348 110 8 0 3.67516324879602 14.5122814857773 6.53175291256048
349 110 7 0 3.91516324879602 13.5822814857773 6.53175291256048
350 111 7 0 8.66125485554337 6.47799146053381 0.770283032907173
351 111 8 0 9.62125485554338 6.47799146053381 0.770283032907173
352 111 7 0 9.86125485554338 5.54799146053381 0.770283032907173
353 112 7 0 12.3016848151758 9.66866343672387 4.18063869816251
354 112 8 0 13.2616848151758 9.66866343672387 4.18063869816251
355 112 7 0 13.5016848151758 8.73866343672387 4.18063869816251
356 113 7 0 3.15918545049615 7.31279041775502 11.8810545362066
357 113 8 0 4.11918545049615 7.31279041775502 11.8810545362066
358 113 7 0 4.35918545049615 6.38279041775502 11.8810545362066
359 114 7 0 14.0823864452261 7.4782852669619 14.5051478489768
360 114 8 0 15.0423864452261 7.4782852669619 14.5051478489768
361 114 7 0 15.2823864452261 6.5482852669619 14.5051478489768
362 115 7 0 8.52248397932388 4.53291585477069 3.18035414675251
363 115 8 0 9.48248397932388 4.53291585477069 3.18035414675251
364 115 7 0 9.72248397932388 3.60291585477069 3.18035414675251
365 116 7 0 1.20651266232133 3.24500853469595 12.4209351337049
366 116 8 0 2.16651266232133 3.24500853469595 12.4209351337049
367 116 7 0 2.40651266232133 2.31500853469595 12.4209351337049
368 117 7 0 10.664625606006 1.11612991470844 12.9327090550214
369 117 8 0 11.624625606006 1.11612991470844 12.9327090550214
370 117 7 0 11.864625606006 0.186129914708435 12.9327090550214
371 118 7 0 12.7425372081064 14.3176736325864 5.17180784605443
372 118 8 0 13.7025372081064 14.3176736325864 5.17180784605443
373 118 7 0 13.9425372081064 13.3876736325864 5.17180784605443
374 119 7 0 6.10532356353477 1.13996446057223 0.986194387078285
375 119 8 0 7.06532356353477 1.13996446057223 0.986194387078285
376 119 7 0 7.30532356353477 0.209964460572228 0.986194387078285
377 120 7 0 8.93457184938714 10.6224645689968 7.21667428384535
378 120 8 0 9.89457184938714 10.6224645689968 7.21667428384535
379 120 7 0 10.1345718493871 9.6924645689968 7.21667428384535
380 121 7 0 -0.0358940935973078 6.75960972014815 10.7250363053754
381 121 8 0 0.924105906402692 6.75960972014815 10.7250363053754
382 121 7 0 1.16410590640269 5.82960972014815 10.7250363053754
383 122 7 0 13.564422439523 14.8539051999711 11.8810644478071
384 122 8 0 14.524422439523 14.8539051999711 11.8810644478071
385 122 7 0 14.764422439523 13.9239051999711 11.8810644478071
386 123 7 0 11.9719738005381 5.87153079378419 2.70292097702622
387 123 8 0 12.9319738005381 5.87153079378419 2.70292097702622
388 123 7 0 13.1719738005381 4.94153079378419 2.70292097702622
389 124 7 0 10.5978998907097 14.5847382994276 12.898798455717
390 124 8 0 11.5578998907097 14.5847382994276 12.898798455717
391 124 7 0 11.7978998907097 13.6547382994276 12.898798455717
392 125 7 0 4.22487390853465 2.50519952079281 14.1899729927536
393 125 8 0 5.18487390853465 2.50519952079281 14.1899729927536
394 125 7 0 5.42487390853465 1.57519952079281 14.1899729927536
395 126 7 0 4.853997173924 13.3801022641733 2.63077069655992
396 126 8 0 5.813997173924 13.3801022641733 2.63077069655992
397 126 7 0 6.053997173924 12.4501022641733 2.63077069655992
398 127 7 0 2.35182586868294 6.1724634554144 8.14438648056239
399 127 8 0 3.31182586868294 6.1724634554144 8.14438648056239
400 127 7 0 3.55182586868294 5.2424634554144 8.14438648056239
401 128 7 0 1.38011154063977 12.0655624002125 9.15385391679592
402 128 8 0 2.34011154063977 12.0655624002125 9.15385391679592
403 128 7 0 2.58011154063977 11.1355624002125 9.15385391679592
404 129 7 0 7.79124689681456 7.09647723863833 4.4043783727102
405 129 8 0 8.75124689681456 7.09647723863833 4.4043783727102
406 129 7 0 8.99124689681456 6.16647723863833 4.4043783727102
407 130 7 0 8.12198324522003 9.22178841586225 1.17178407032043
408 130 8 0 9.08198324522004 9.22178841586225 1.17178407032043
409 130 7 0 9.32198324522004 8.29178841586225 1.17178407032043
410 131 7 0 1.68280708414502 2.60316669516265 7.41987804416567
411 131 8 0 2.64280708414502 2.60316669516265 7.41987804416567
412 131 7 0 2.88280708414502 1.67316669516265 7.41987804416567
413 132 7 0 6.02943057820201 0.729251467101276 11.7843393981457
414 132 8 0 6.98943057820201 0.729251467101276 11.7843393981457
415 132 7 0 7.22943057820201 -0.200748532898724 11.7843393981457
416 133 7 0 1.82184637684375 7.7487419607956 1.29032236291096
417 133 8 0 2.78184637684375 7.7487419607956 1.29032236291096
418 133 7 0 3.02184637684375 6.8187419607956 1.29032236291096
419 134 7 0 13.962786144549 6.46789004834369 10.7705251348671
420 134 8 0 14.922786144549 6.46789004834369 10.7705251348671
421 134 7 0 15.162786144549 5.53789004834369 10.7705251348671
422 135 7 0 10.4479185228422 14.5350679200515 11.0377009597141
423 135 8 0 11.4079185228422 14.5350679200515 11.0377009597141
424 135 7 0 11.6479185228422 13.6050679200515 11.0377009597141
425 136 7 0 11.6230914769415 14.9535788774397 9.03130389517173
426 136 8 0 12.5830914769415 14.9535788774397 9.03130389517173
427 136 7 0 12.8230914769415 14.0235788774397 9.03130389517173
428 137 7 0 9.81668418782763 14.6065837463271 4.95322554605082
429 137 8 0 10.7766841878276 14.6065837463271 4.95322554605082
430 137 7 0 11.0166841878276 13.6765837463271 4.95322554605082
431 138 7 0 2.97221635046415 6.12163834314793 14.2991246853489
432 138 8 0 3.93221635046415 6.12163834314793 14.2991246853489
433 138 7 0 4.17221635046415 5.19163834314793 14.2991246853489
434 139 7 0 12.2991906786058 9.6348925183434 7.1498941979371
435 139 8 0 13.2591906786058 9.6348925183434 7.1498941979371
436 139 7 0 13.4991906786058 8.7048925183434 7.1498941979371
437 140 7 0 4.34415782030672 13.5323141472787 0.472688809968531
438 140 8 0 5.30415782030672 13.5323141472787 0.472688809968531
439 140 7 0 5.54415782030672 12.6023141472787 0.472688809968531
440 141 7 0 13.3909701886307 1.2557639278844 13.2910502969753
441 141 8 0 14.3509701886307 1.2557639278844 13.2910502969753
442 141 7 0 14.5909701886307 0.3257639278844 13.2910502969753
443 142 7 0 7.21106982833706 3.66363778518513 0.965564134530723
444 142 8 0 8.17106982833706 3.66363778518513 0.965564134530723
445 142 7 0 8.41106982833706 2.73363778518513 0.965564134530723
446 143 7 0 9.67388988981955 11.7355539607257 0.218519729096442
447 143 8 0 10.6338898898195 11.7355539607257 0.218519729096442
448 143 7 0 10.8738898898195 10.8055539607257 0.218519729096442
449 144 7 0 2.82325516498648 3.9681700341776 8.21994630619884
450 144 8 0 3.78325516498648 3.9681700341776 8.21994630619884
451 144 7 0 4.02325516498648 3.0381700341776 8.21994630619884
452 145 7 0 3.09510337349027 10.8001762341615 0.827225656248629
453 145 8 0 4.05510337349027 10.8001762341615 0.827225656248629
454 145 7 0 4.29510337349027 9.87017623416148 0.827225656248629
455 146 7 0 6.32381898161955 5.29349822824821 11.4646714401897
456 146 8 0 7.28381898161955 5.29349822824821 11.4646714401897
457 146 7 0 7.52381898161955 4.36349822824821 11.4646714401897
458 147 7 0 8.23892295869999 2.18029401538894 9.6815230557695
459 147 8 0 9.19892295869999 2.18029401538894 9.6815230557695
460 147 7 0 9.43892295869999 1.25029401538894 9.6815230557695
461 148 7 0 2.84056519201957 11.2357304575294 8.66290947888047
462 148 8 0 3.80056519201957 11.2357304575294 8.66290947888047
463 148 7 0 4.04056519201957 10.3057304575294 8.66290947888047
464 149 7 0 5.38206783050671 2.08004632772878 7.431433115853
465 149 8 0 6.34206783050671 2.08004632772878 7.431433115853
466 149 7 0 6.58206783050671 1.15004632772878 7.431433115853
467 150 7 0 7.31476570523344 0.835505141122267 11.7768972460181
468 150 8 0 8.27476570523344 0.835505141122267 11.7768972460181
469 150 7 0 8.51476570523344 -0.0944948588777334 11.7768972460181
470 151 7 0 13.4475563994795 14.1785537863057 10.1325615670066
471 151 8 0 14.4075563994795 14.1785537863057 10.1325615670066
472 151 7 0 14.6475563994795 13.2485537863057 10.1325615670066
473 152 7 0 1.36259225240909 8.8821710883081 10.8508558385074