LAMMPS (29 Sep 2021 - Update 1)
Reading data file ...
  triclinic box = (0.0000000 0.0000000 0.0000000) to (15.000000 15.000000 15.000000) with tilt (0.0000000 0.0000000 0.0000000)
  2 by 4 by 4 MPI processor grid
  reading atoms ...
  1522 atoms
  scanning bonds ...
  2 = max bonds/atom
  scanning angles ...
  6 = max angles/atom
  scanning dihedrals ...
  10 = max dihedrals/atom
  scanning impropers ...
  1 = max impropers/atom
  reading bonds ...
  1021 bonds
  reading angles ...
  536 angles
  reading dihedrals ...
  45 dihedrals
  reading impropers ...
  4 impropers
Finding 1-2 1-3 1-4 neighbors ...
  special bond factors lj:    0        0        1       
  special bond factors coul:  0        0        1       
     4 = max # of 1-2 neighbors
     6 = max # of 1-3 neighbors
    10 = max # of special neighbors
  special bonds CPU = 0.002 seconds
  read_data CPU = 0.017 seconds
WARNING: Using 'neigh_modify every 1 delay 0 check yes' setting during minimization (../min.cpp:188)
Neighbor list info ...
  update every 1 steps, delay 0 steps, check yes
  max neighbors/atom: 10000, page size: 100000
  master list distance cutoff = 13
  ghost atom cutoff = 13
  binsize = 6.5, bins = 3 3 3
  3 neighbor lists, perpetual/occasional/extra = 3 0 0
  (1) pair hbond/dreiding/lj, perpetual, skip from (3)
      attributes: full, newton on
      pair build: skip
      stencil: none
      bin: none
  (2) pair lj/cut, perpetual, half/full from (3)
      attributes: half, newton on
      pair build: halffull/newton
      stencil: none
      bin: none
  (3) neighbor class addition, perpetual
      attributes: full, newton on
      pair build: full/bin
      stencil: full/bin/3d
      bin: standard
Setting up cg style minimization ...
  Unit style    : real
  Current step  : 0
WARNING: Energy due to 1 extra global DOFs will be included in minimizer energies
Per MPI rank memory allocation (min/avg/max) = 14.53 | 14.90 | 15.45 Mbytes
Step Temp E_pair E_mol TotEng Press Volume 
       0            0 1.790961e+19    208.22798 1.790961e+19 1.4554472e+21         3375 
    6270            0   -1110.8447    53.161862   -1057.6828    51.618934    34594.229 
Loop time of 5.13847 on 32 procs for 6270 steps with 1522 atoms

100.0% CPU use with 32 MPI tasks x no OpenMP threads

Minimization stats:
  Stopping criterion = energy tolerance
  Energy initial, next-to-last, final = 
    1.79096097848154e+19  -1057.12690967159  -1057.22749800598
  Force two-norm initial, final = 3.7899555e+21 83.868082
  Force max component initial, final = 2.5023490e+21 35.269868
  Final line search alpha, max atom move = 7.8235968e-06 0.00027593723
  Iterations, force evaluations = 6270 6272

MPI task timing breakdown:
Section |  min time  |  avg time  |  max time  |%varavg| %total
---------------------------------------------------------------
Pair    | 1.521      | 2.9514     | 3.9976     |  34.7 | 57.44
Bond    | 0.0070031  | 0.013757   | 0.034176   |   4.1 |  0.27
Neigh   | 0.089596   | 0.089813   | 0.090095   |   0.0 |  1.75
Comm    | 0.63829    | 1.6825     | 3.115      |  46.1 | 32.74
Output  | 0          | 0          | 0          |   0.0 |  0.00
Modify  | 0          | 0          | 0          |   0.0 |  0.00
Other   |            | 0.401      |            |       |  7.80

Nlocal:        47.5625 ave          70 max          24 min
Histogram: 1 1 4 2 5 9 4 4 1 1
Nghost:        2078.22 ave        2109 max        2049 min
Histogram: 2 4 2 3 4 6 4 3 2 2
Neighs:        5377.09 ave        8509 max        2660 min
Histogram: 1 4 1 5 7 5 7 0 1 1

Total # of neighbors = 172067
Ave neighs/atom = 113.05322
Ave special neighs/atom = 2.0459921
Neighbor list builds = 93
Dangerous builds = 0
1500 atoms in group WAT
22 atoms in group MOL
Neighbor list info ...
  update every 2 steps, delay 10 steps, check yes
  max neighbors/atom: 10000, page size: 100000
  master list distance cutoff = 13
  ghost atom cutoff = 13
  binsize = 6.5, bins = 6 6 6
  4 neighbor lists, perpetual/occasional/extra = 3 1 0
  (1) pair hbond/dreiding/lj, perpetual, skip from (4)
      attributes: full, newton on
      pair build: skip
      stencil: none
      bin: none
  (2) pair lj/cut, perpetual, half/full from (4)
      attributes: half, newton on
      pair build: halffull/newton
      stencil: none
      bin: none
  (3) compute group/group, occasional, copy from (2)
      attributes: half, newton on
      pair build: copy
      stencil: none
      bin: none
  (4) neighbor class addition, perpetual
      attributes: full, newton on
      pair build: full/bin
      stencil: full/bin/3d
      bin: standard
Setting up Verlet run ...
  Unit style    : real
  Current step  : 6270
  Time step     : 1
Per MPI rank memory allocation (min/avg/max) = 13.38 | 13.45 | 14.04 Mbytes
Step Temp E_pair E_mol TotEng Press Volume 
    6270          300   -1110.8447    53.161862    302.46083    1848.8916    34594.229 
    6300    284.51111   -1124.5239    214.35936    379.75538    2148.7979    34594.229 
    6400    300.10819   -1183.5324    205.97336    383.07513   -642.45007    34594.229 
    6500    301.30417   -1169.2754    235.59429    432.37531   -648.29774    34594.229 
    6600    292.64083   -1172.9566    199.89693    353.71886     34.35141    34594.229 
    6700    299.57826   -1158.5389    206.09428    405.78697   -623.94741    34594.229 
    6800    295.08232   -1177.3302    223.69615    384.21371    163.76522    34594.229 
    6900    302.57635   -1191.4478    215.36215    395.73863    529.45455    34594.229 
    7000    301.94401    -1134.803    209.13736     443.2918    1055.5564    34594.229 
    7100    293.63428   -1163.3156    219.57014    387.53719     569.6683    34594.229 
    7200    309.77495   -1183.1206    213.08545    434.42627    271.66792    34594.229 
    7300    292.52917   -1189.2653    217.01012    354.01713    285.64961    34594.229 
    7400    287.57774   -1189.1395    216.02783    330.71176    369.74013    34594.229 
    7500    309.36861   -1177.6297    218.14456    443.13396    235.97353    34594.229 
    7600     303.7605   -1190.3954    220.15486    406.95253    214.11279    34594.229 
    7700    301.41841   -1135.3517    227.96517    459.18786    521.79864    34594.229 
    7800    295.25076   -1145.3797    229.10881    422.34053    697.34409    34594.229 
    7900     307.6649   -1145.9536    224.26784    473.20902    677.77235    34594.229 
    8000    308.22583   -1156.8404    230.90173    471.49938    700.68809    34594.229 
    8100    297.71662   -1168.7875    234.55967    415.56339    398.07496    34594.229 
    8200    313.15588   -1093.2947     238.8636    565.35881    692.57406    34594.229 
    8300    301.94247   -1148.5775    219.93005    440.30297     820.7213    34594.229 
    8400    311.35122   -1149.5351    241.96959    504.04238    413.32296    34594.229 
    8500    302.63597   -1144.8463    237.63363    464.88191    266.40924    34594.229 
    8600    294.28885   -1177.3859    239.73767    396.60216    90.777383    34594.229 
    8700    310.95433   -1169.6165    236.53653    476.72853    404.22578    34594.229 
    8800    297.77951   -1184.6561    231.21828    396.63846    293.86278    34594.229 
    8900    298.81468   -1212.9149    242.77156    384.62621    562.09428    34594.229 
    9000    301.07842    -1203.418    250.62349    412.23843    399.33349    34594.229 
    9100    306.48412   -1142.1422    232.00484      479.404    729.52754    34594.229 
    9200     302.9106   -1190.2276    237.90655    421.01864    503.48183    34594.229 
    9300    301.12966   -1172.0427    243.13152    436.35412    102.58103    34594.229 
    9400    306.75314   -1166.1287    237.23842    461.87084    445.61026    34594.229 
    9500    297.33179   -1191.7888    245.83658    402.09425   -151.75654    34594.229 
    9600    289.29328   -1165.1154    256.57762    403.06357    456.51158    34594.229 
    9700    306.65895   -1171.8555    255.42631    473.90483     830.4833    34594.229 
    9800    303.82421   -1156.9184    242.04638     462.6099    293.55416    34594.229 
    9900    293.47594   -1180.7731    249.80713    399.59875    271.72593    34594.229 
   10000    298.31358   -1193.2867    256.45277    415.66378    410.67069    34594.229 
   10100    295.67263   -1174.4914    257.81388    423.84666    546.55598    34594.229 
   10200    296.40855   -1148.3985    261.28002    456.74215    770.19575    34594.229 
   10300    306.84945   -1144.9156    258.36383    504.64596    272.99272    34594.229 
   10400    309.98859   -1192.9256    259.84702    472.35143    192.20377    34594.229 
   10500    304.73876   -1160.2228     249.0621    470.46752    375.91079    34594.229 
   10600    297.11897   -1167.3525    266.19118    445.92027    456.77817    34594.229 
   10700    305.26092   -1122.6177    273.85061    535.22857    455.94385    34594.229 
   10800    291.08807   -1140.6684    257.08353    436.15375    618.42497    34594.229 
   10900    308.13482    -1157.643    279.21535    518.59771    682.47978    34594.229 
   11000    290.41032   -1157.9183    250.19815    408.94565    524.71735    34594.229 
   11100     308.5384   -1176.0838    270.56856    493.33984    641.90133    34594.229 
   11200    299.83315    -1205.764     274.2011     427.8243    394.72579    34594.229 
   11300    287.26932   -1205.2215    278.04952    375.25316    309.72595    34594.229 
   11400    295.06228   -1211.8007    264.12166    390.07796    565.59361    34594.229 
   11500    301.70736   -1204.7503    263.38492    426.51912    923.69478    34594.229 
   11600    301.94237    -1233.846    274.88906      409.993    692.63492    34594.229 
   11700    303.57335   -1195.5077    276.84898    457.68581    890.37086    34594.229 
   11800    301.97432   -1196.7762    278.22413    450.54276    579.83991    34594.229 
   11900    307.12257   -1195.2024    272.47597     469.7096    407.62409    34594.229 
   12000    300.68741   -1197.9025    272.42421     437.7819    594.65349    34594.229 
   12100    295.73797   -1196.1829    280.99865    425.63615    649.64211    34594.229 
   12200    301.12547   -1214.0862    269.19939    420.35943    142.77413    34594.229 
   12300    300.10093   -1229.3601     273.0849    404.32603    329.86388    34594.229 
   12400    296.20187   -1254.2779    280.65457     369.3003   -212.51997    34594.229 
   12500    300.97403   -1221.2066     301.2494    444.60249    453.33959    34594.229 
   12600    298.41848   -1254.9284    296.29413    394.33904    668.39907    34594.229 
   12700    289.02167   -1239.8252    292.26673    362.81148    407.81931    34594.229 
   12800    295.91979   -1253.3747    284.59226    372.86227    337.64917    34594.229 
   12900    296.88401   -1223.7099    288.29551     410.6019   -69.709941    34594.229 
   13000    303.91517   -1221.0753    303.40735    460.22628   -1.9434891    34594.229 
   13100    313.78814    -1184.017    303.20578    541.84531    424.01736    34594.229 
   13200    296.00832   -1234.6282    288.84323    396.26114   -62.752413    34594.229 
   13300    306.43927   -1196.3557    291.06983    484.05222    245.53504    34594.229 
   13400    292.10957   -1231.6115    292.82354    385.58193    376.19825    34594.229 
   13500    296.79808   -1257.5014    309.45582    397.58114    252.00413    34594.229 
   13600    296.45099   -1272.4089    285.46244    357.10657   -178.98707    34594.229 
   13700    304.87572   -1302.5527    304.72366    384.42018     336.6572    34594.229 
   13800    297.72877   -1277.0868    307.22017    379.97967    497.03143    34594.229 
   13900    311.01237   -1269.9359    288.28559    428.42131     233.0844    34594.229 
   14000     299.4852   -1264.2139    311.54531    405.14102    549.23914    34594.229 
   14100     301.2415   -1281.2782    282.60531    367.09945    667.29292    34594.229 
   14200    298.61518   -1237.2386    291.28302    407.90949    403.11542    34594.229 
   14300    313.96394   -1270.7805    298.64069    451.31373    621.62057    34594.229 
   14400    289.64323    -1249.605    308.77947    372.36244    204.42954    34594.229 
   14500    297.95204   -1232.1709    317.84631    436.53394    629.32444    34594.229 
   14600    303.80647    -1215.783    307.57761    469.19606    363.73473    34594.229 
   14700    302.55086   -1272.0784    310.32499    409.95532     821.3802    34594.229 
   14800    294.64803   -1303.8732    292.24573    324.25134     338.4125    34594.229 
   14900    304.29913   -1313.2397    298.46883    364.86426    533.17342    34594.229 
   15000    297.30621   -1300.3438    326.14057    373.72725    11.564728    34594.229 
   15100    294.16594   -1293.7168    313.00775    352.98404   -27.249789    34594.229 
   15200    301.84472   -1274.5294    325.66361     419.6415    73.121304    34594.229 
   15300    309.02435   -1246.7717    313.11942    467.40601     572.6015    34594.229 
   15400    288.57067   -1275.2273    307.66822    340.76613   -102.55953    34594.229 
   15500    296.18795   -1237.2986    328.62285     434.1847     386.3374    34594.229 
   15600    305.61202   -1288.2647    311.88662    409.20942    255.92205    34594.229 
   15700    300.91663   -1258.4183    315.29202    421.17322   -28.748101    34594.229 
   15800    293.33789   -1264.2997    303.99623    369.63541   -36.014303    34594.229 
   15900    305.71326   -1271.8017    318.41839    432.66313    74.181726    34594.229 
   16000    298.04293   -1220.2945     307.7759    438.75201    105.08913    34594.229 
   16100    304.39285   -1259.6443    322.32339    442.73903    368.02509    34594.229 
   16200    301.47604   -1227.4572    314.24599    453.62448   -35.286085    34594.229 
   16300    295.46616   -1228.0231    311.23655    422.80147    264.49839    34594.229 
   16400    301.11021     -1199.22    324.07932    490.03646    176.68786    34594.229 
   16500    300.79976   -1197.6112    328.33776    494.49614    291.47201    34594.229 
   16600     297.6674   -1172.5066    317.63201     494.6935    405.81969    34594.229 
   16700    301.72866   -1200.1903    323.18198    490.97275    185.20511    34594.229 
   16800    296.11922    -1254.375    304.84599    393.01994   -437.96825    34594.229 
   16900    294.19422   -1230.3519    335.54465    439.01404   -163.93921    34594.229 
   17000    293.18889   -1235.2177    303.26624    397.31183    75.215771    34594.229 
   17100    291.57477   -1243.7447    314.53112    392.73164    592.68364    34594.229 
   17200    298.10042   -1239.0656    315.90272    428.36839    94.786708    34594.229 
   17300    292.51833   -1254.7902    314.73529    386.16824    735.55442    34594.229 
   17400    292.08229    -1205.472    312.82332    431.59758    292.69302    34594.229 
   17500    299.29651   -1200.2462    321.87583    478.58375    801.98172    34594.229 
   17600    304.70551   -1154.2179    319.98621    547.24582    723.24867    34594.229 
   17700    296.80379   -1225.7391    327.09289    447.00637    966.66886    34594.229 
   17800    289.65335   -1275.0297    325.58175    363.78585    662.31553    34594.229 
   17900    299.35102   -1249.3127    320.13514    428.02369    548.79232    34594.229 
   18000    306.43486   -1226.3443    320.80453     483.7783    576.55342    34594.229 
   18100    313.45518   -1225.2711    343.66802    539.54383    622.82892    34594.229 
   18200    307.61206   -1214.1297    325.48937    506.01497    637.23243    34594.229 
   18300    296.66348   -1211.2576    329.05322    462.81209    748.41501    34594.229 
   18400     308.3514   -1220.6734    322.78053    500.11439    581.45086    34594.229 
   18500     299.5853   -1240.9832    331.76912    449.04932    472.37011    34594.229 
   18600    298.10781   -1193.6767    333.57895    491.46699   -31.620167    34594.229 
   18700    299.01343   -1187.6669    317.46676    485.47059    92.221559    34594.229 
   18800    289.98017   -1230.3282    339.12849    423.51586    12.508746    34594.229 
   18900    294.29622   -1235.3258    331.24545    430.20341    473.81934    34594.229 
   19000    291.70316   -1188.9223    342.94744    476.55244   -265.26243    34594.229 
   19100    294.85091   -1224.9924    337.95999    449.76622   -540.41612    34594.229 
   19200    290.66516   -1260.9845    335.53589    392.37262   -418.23464    34594.229 
   19300     295.0416   -1227.2684    331.04038    441.43519   -11.424453    34594.229 
   19400    298.98773   -1222.9547     333.8354    466.43485    94.514046    34594.229 
   19500    294.18829   -1247.4852    335.14198    421.45119   -75.105715    34594.229 
   19600    291.42447   -1258.1818    336.16524    399.24729     220.0606    34594.229 
   19700    307.12716   -1280.5437    329.68922    441.60234    392.38452    34594.229 
   19800    298.06433   -1276.3544    332.70015    407.71344    902.73775    34594.229 
   19900    295.33838    -1295.095     355.8403    399.75404    679.62179    34594.229 
   20000    295.55467   -1251.0356    344.99629    433.95009    871.33119    34594.229 
   20100    300.34404   -1296.4289    328.49015    393.76469    229.41279    34594.229 
   20200     308.7951   -1299.5785    339.03937    439.47985    348.40714    34594.229 
   20300    301.77549   -1301.4426    362.06037    428.81116   -294.56343    34594.229 
   20400    302.40899   -1304.5038    341.59661    408.15832    551.43259    34594.229 
   20500    295.81363   -1304.8494    347.33788    383.65186    815.89614    34594.229 
   20600    298.35668   -1277.5888    337.61164    412.71593     182.8837    34594.229 
   20700    308.02981   -1245.1634    349.46536    500.85118    -98.97866    34594.229 
   20800    307.94289    -1304.907    330.82588    422.07409    166.22742    34594.229 
   20900    299.70002   -1323.6867    355.01127    390.10814    630.76957    34594.229 
   21000    297.68762   -1294.6709    344.02966    399.01848    36.805273    34594.229 
   21100    306.73286   -1298.3556    345.27995     437.5935    429.45144    34594.229 
   21200    304.22718   -1268.5548    354.65425    465.40828    103.80908    34594.229 
   21300    298.82743   -1241.1753     344.8188    458.47088    105.39551    34594.229 
   21400    295.19203   -1263.8561    327.72424     402.2133    263.20471    34594.229 
   21500    298.52842    -1232.295    385.14967    506.32646   -86.430376    34594.229 
   21600     303.8836   -1239.2718    371.04245    509.52182    460.02924    34594.229 
   21700    302.60708   -1274.9576     344.4375    441.44353    175.18882    34594.229 
   21800    304.89669   -1263.7146    339.69916    458.32884   -40.684355    34594.229 
   21900     309.8913   -1266.2468    354.65384    493.39599   -150.40594    34594.229 
   22000    305.55148   -1284.0085    365.40937    466.71381   -458.57415    34594.229 
   22100    295.56276    -1274.078    365.14251    431.09052   -152.39977    34594.229 
   22200    297.71645   -1317.1715    356.15861    388.77749    86.397808    34594.229 
   22300    301.94712   -1261.4666    362.54415    470.04906    387.38611    34594.229 
   22400    303.27561    -1273.757    354.89437    456.13197      230.014    34594.229 
   22500     308.4342   -1255.8426    370.08666    512.62675    488.75104    34594.229 
   22600     308.1639   -1292.9083    355.13703    459.38597    149.79583    34594.229 
   22700    305.52775   -1269.3479    340.26611    456.12363    290.77058    34594.229 
   22800    300.93749   -1242.4415    369.25144      491.204   -184.46083    34594.229 
   22900    298.51228   -1261.4615    363.81652    455.75359   -57.827532    34594.229 
   23000     294.5015    -1248.966    356.05175    442.30022    485.13544    34594.229 
   23100     302.1246   -1264.0105    369.28517    475.05081    45.960801    34594.229 
   23200      300.817   -1263.4827    369.03863    469.40372    504.16664    34594.229 
   23300    302.75214   -1245.3335    382.46204    509.74987    402.98707    34594.229 
   23400    304.45407   -1284.7958    384.29027    479.83208    445.72461    34594.229 
   23500    305.41225   -1299.2055    349.97683    435.45309   -174.81361    34594.229 
   23600    307.27589    -1282.085    357.43172    468.47785    302.01178    34594.229 
   23700    299.96209   -1290.2898    365.78204    435.46396    458.53713    34594.229 
   23800    305.26599    -1281.949    371.05114     473.1208     380.1854    34594.229 
   23900    294.93203   -1249.5511    374.54337    462.15864   -228.83716    34594.229 
   24000    286.00535   -1268.3052    345.49149    373.88086    420.58558    34594.229 
   24100     293.5627   -1268.7664    356.43168    418.62339   -442.84471    34594.229 
   24200     289.4974   -1203.1291    384.84387    494.24162   -138.06965    34594.229 
   24300    310.70976   -1234.0413    367.90113    542.55946   -275.66668    34594.229 
   24400    301.01285   -1253.9916    357.46742    468.21153    -186.4458    34594.229 
   24500    308.83363    -1243.259     356.8017    513.73639      303.886    34594.229 
   24600    305.29043   -1279.2596    375.36889    480.23873    209.72999    34594.229 
   24700     294.9028    -1319.835    362.05073    379.24962    544.23043    34594.229 
   24800    296.62766   -1321.4698    364.21144    387.59568     638.2876    34594.229 
   24900    304.24435   -1305.6312    358.28263    432.03816    484.59637    34594.229 
   25000    305.73708   -1296.2422    348.32256    438.23483    1018.3617    34594.229 
   25100    297.34716   -1284.5355    384.69123    448.27194    677.66824    34594.229 
   25200    290.86042   -1278.2514    390.56329    431.01834    827.15234    34594.229 
   25300    300.78032   -1253.8534    383.07167    492.89974    594.05807    34594.229 
   25400    300.01964   -1230.7918    401.43655    530.87744    534.81265    34594.229 
   25500    300.58041   -1307.4516    374.20839    429.53192     277.9459    34594.229 
   25600    308.44056   -1279.3006    370.19074    489.30168    539.01935    34594.229 
   25700    290.61385   -1262.3702    400.38049    455.59882    -64.50786    34594.229 
   25800    288.99281   -1283.4116    389.55339    416.38093    199.48416    34594.229 
   25900    304.62051   -1252.0227    376.92386    505.99336   -80.665053    34594.229 
   26000    295.79253   -1226.6999    392.23814    506.60598    177.18694    34594.229 
   26100    300.03963   -1213.7731    396.50667    543.05681    111.51018    34594.229 
   26200    301.34992   -1240.9597    373.41125    498.71543    609.33367    34594.229 
   26300    300.28145   -1258.7217    370.15572     472.8537    704.43851    34594.229 
   26400    300.89564   -1250.8869    381.52249    494.83986    317.90596    34594.229 
   26500     293.8246   -1202.1589    379.27182    509.25849    599.57589    34594.229 
   26600    293.56983   -1256.0229      392.001    466.96851    862.71958    34594.229 
   26700     308.5968   -1248.9339    384.98325    535.16928    674.28477    34594.229 
   26800    295.89583   -1259.6198    399.68415     481.6004    513.84171    34594.229 
   26900    290.69721   -1314.6748     388.2665    391.55828    1043.7136    34594.229 
   27000    301.76893   -1278.5255    383.67377    473.31191    996.88615    34594.229 
   27100    294.91599     -1304.74    401.98826    434.34196    974.27614    34594.229 
   27200    314.06002   -1264.6324    409.95142    569.20814    506.48675    34594.229 
   27300    292.93051    -1285.428    376.79546    419.45937   -91.292741    34594.229 
   27400    286.03088   -1307.8025    378.18902    367.19679   -133.38538    34594.229 
   27500    295.74262   -1321.8334    406.34555    425.35361    21.060072    34594.229 
   27600    299.73631   -1247.5495    387.88198    499.28054    444.45055    34594.229 
   27700    290.83867    -1261.434    377.95958    435.13346    262.52895    34594.229 
   27800    297.75501   -1271.6667    393.76809     472.0666   -131.66988    34594.229 
   27900    308.85294   -1259.8418    392.40138    532.84082    275.05797    34594.229 
   28000     287.4446   -1288.8779    393.98401    408.32591   -206.60516    34594.229 
   28100    301.38399   -1289.4878    379.09394    456.02458   -104.49405    34594.229 
   28200      304.008   -1281.3302     406.9104    503.89528    311.33403    34594.229 
   28300    300.31796   -1323.0661    401.78242    440.30157    216.79536    34594.229 
   28400    300.65589    -1275.049    389.61483    477.68315    243.45764    34594.229 
   28500    299.20361    -1245.812    396.83092     507.5519    -218.6195    34594.229 
   28600    293.19721   -1309.7566    401.62068    421.16517    44.654315    34594.229 
   28700      301.379   -1324.9057    440.18163    481.67166    434.85777    34594.229 
   28800    304.40242   -1327.8754    393.73623     445.9642   -125.17876    34594.229 
   28900    304.75855   -1318.0464    386.93914    450.61077    459.82879    34594.229 
   29000     299.7501   -1310.5159    371.31017    419.80489    350.55706    34594.229 
   29100    299.80204   -1355.6391    383.57443    387.18146    15.322124    34594.229 
   29200    292.53891   -1340.0739    379.62067     365.8632     721.0056    34594.229 
   29300    296.72355   -1328.9994    389.34844     405.6378    193.68018    34594.229 
   29400    293.19396   -1348.0018    376.66208    357.94663  0.030627346    34594.229 
   29500    283.53918   -1373.3659    385.64792    297.79536     29.26516    34594.229 
   29600    300.57198   -1385.5171    390.61817      367.838   -37.382235    34594.229 
   29700    301.38434   -1322.6696    402.44899    446.19931   -137.62911    34594.229 
   29800    298.98254   -1309.8789    387.61435    433.26606   -342.03261    34594.229 
   29900     302.5685   -1328.3452    380.85791    424.30149    93.019201    34594.229 
   30000     297.9061   -1287.2498    395.80579    459.20627    283.83807    34594.229 
   30100    300.24542   -1341.9247    375.78758     395.1192    692.60088    34594.229 
   30200    302.08243   -1383.1671    397.74633    384.16424    142.33682    34594.229 
   30300    290.63232    -1345.888    403.30053    375.08489   -352.94472    34594.229 
   30400    297.01234   -1325.4179     398.1225    419.30274   -208.97153    34594.229 
   30500    304.42757   -1303.6101     390.6464    467.25374   -625.53855    34594.229 
   30600    288.29051   -1373.5097    385.97918    319.52454     9.121356    34594.229 
   30700     296.6863   -1342.3159    385.03223    387.83629   -138.11541    34594.229 
   30800       285.42   -1354.4003    370.17893    309.81926   -273.36815    34594.229 
   30900    292.60621   -1356.7217    385.47664    355.37656    428.45458    34594.229 
   31000    293.62673   -1338.0389    377.36982    370.57932    283.02357    34594.229 
   31100    289.51384   -1343.6927    389.29639    358.20505    454.23796    34594.229 
   31200    301.14356   -1372.0854     396.5226    389.76549    318.10761    34594.229 
   31300    301.07015   -1373.9203    387.02253    378.09771    619.41343    34594.229 
   31400    303.47843   -1335.1314    402.76167    443.54447    1055.5843    34594.229 
   31500    298.05524   -1363.2399    380.47316    368.55969    660.91245    34594.229 
   31600    302.50119    -1333.588    379.60603    417.50159    259.49847    34594.229 
   31700    295.71832   -1416.2798    387.00983    311.46133   -304.82342    34594.229 
   31800    300.41949   -1344.1147    386.17033    404.10115   -516.05416    34594.229 
   31900     305.8856   -1356.5163    380.83967    411.15119   -592.15238    34594.229 
   32000    297.25774   -1360.3811    390.48688     377.8165   -335.47399    34594.229 
   32100     300.9208   -1329.5493    404.27862    439.04762    420.91536    34594.229 
   32200    306.56707   -1340.1804    411.45222    461.18925    224.84396    34594.229 
   32300    300.73124   -1346.9671    391.83252    408.32435    352.97811    34594.229 
   32400    293.77649    -1371.183    380.04966    340.79404    236.03197    34594.229 
   32500    289.14729   -1356.1266    387.16093    341.97383    347.61693    34594.229 
   32600     309.7681   -1366.4105    395.77305    433.79292    560.95337    34594.229 
   32700    295.30371   -1383.2262    395.27057    350.89587     645.0493    34594.229 
   32800    303.85602   -1346.7735    396.48892    427.34146    620.82353    34594.229 
   32900    294.94047   -1333.6875    393.97756    397.49473    353.14331    34594.229 
   33000    298.80607   -1337.2859     394.8092    412.25388   -132.57262    34594.229 
   33100    309.21877   -1356.8184    387.46169    432.58314     695.5024    34594.229 
   33200    295.85755   -1385.9828     423.3845    378.76418   -32.069249    34594.229 
   33300    298.16096   -1362.7904    394.66788    383.68319    96.321522    34594.229 
   33400    293.43856   -1337.4466    401.46907    394.41772    645.74914    34594.229 
   33500    292.20443   -1328.9578    388.30869    384.15091    180.35327    34594.229 
   33600    304.86642    -1358.203    368.75926    392.76333   -62.176185    34594.229 
   33700    308.96045   -1358.9878    388.52348     430.3043   -27.965709    34594.229 
   33800    303.08046   -1337.8394    390.67263    426.94311    281.59363    34594.229 
   33900    302.24391   -1303.4031    393.84674    460.76071   -265.03549    34594.229 
   34000    300.32382   -1327.3925    395.70161    429.92087   -208.58407    34594.229 
   34100    295.69782   -1325.0425    409.61146    425.20733    92.821838    34594.229 
   34200    291.72284   -1332.7497    398.42289    388.28972   -182.78899    34594.229 
   34300    301.74131   -1347.1305    396.70602    417.61397    225.77566    34594.229 
   34400    298.18332   -1294.0054    418.26029    476.16198    362.96666    34594.229 
   34500    300.99459   -1333.8576     404.6675    435.46282    74.759412    34594.229 
   34600    295.81834   -1309.9103    413.41766     444.6921    138.69281    34594.229 
   34700    304.11982   -1292.9609    405.34126    491.20249    866.53907    34594.229 
   34800    296.69155   -1290.8671    417.06743    471.34404     696.9647    34594.229 
   34900    305.51056   -1327.7015     415.5224    472.94839    338.73638    34594.229 
   35000     299.5736   -1344.7502    396.46256    409.92278    489.82444    34594.229 
   35100    299.23634   -1329.7436    414.11663    441.05435   -231.06636    34594.229 
   35200    304.16419   -1348.8605    390.34537    420.50817    145.42507    34594.229 
   35300    295.28706   -1375.8776    397.18693    360.08532   -121.98172    34594.229 
   35400    301.23053   -1305.1778     410.4344    470.97923   -82.454967    34594.229 
   35500    297.52463   -1315.0712    415.96826    449.81785     479.1376    34594.229 
   35600    286.60234   -1336.3812    419.42009    382.44005    338.52395    34594.229 
   35700    300.82998   -1344.6896    404.30709    423.52409     1079.507    34594.229 
   35800     295.4203   -1323.6379    421.22709    436.96929    488.11987    34594.229 
   35900     309.1603    -1334.764    415.79643    482.70719   -121.79975    34594.229 
   36000    298.66122   -1299.9652     418.5223    472.63092    61.436947    34594.229 
   36100    303.36738   -1315.6217    413.33662    473.12569    575.03417    34594.229 
   36200    297.31052   -1346.1779    416.64452    418.41667    396.23276    34594.229 
   36300    303.83924   -1295.1133    407.94364    490.38032    490.34972    34594.229 
   36400    301.75108   -1312.7252    421.05482    476.41231    303.47632    34594.229 
   36500    295.99557   -1365.5748     421.5363    397.94975    235.12517    34594.229 
   36600    304.25203   -1347.2519    421.25839    453.42806    337.84725    34594.229 
   36700    296.43637   -1391.8995    416.38957    368.47683   -787.93261    34594.229 
   36800    301.88485   -1398.1638    408.21387    378.73925   -1288.3353    34594.229 
   36900     306.3383   -1326.4068    430.86142    493.33493   -560.39384    34594.229 
   37000    301.41556   -1350.2613    398.29465     414.5948   -833.43209    34594.229 
   37100    297.51135   -1358.8101    435.10057    425.15102   -823.10787    34594.229 
   37200    301.64771   -1368.8316      422.988     421.7704   -112.09208    34594.229 
   37300    301.99998   -1331.8762    417.62452    454.95946    495.45034    34594.229 
   37400    301.33712   -1320.4548    440.37768    486.12878    297.28075    34594.229 
   37500    311.96755   -1308.3806    417.05401    523.07569    556.84169    34594.229 
   37600    309.92098   -1336.8215    407.48573    475.78772    708.87192    34594.229 
   37700    306.28778   -1348.1307    438.69182    479.21237    512.43417    34594.229 
   37800    300.74448    -1344.959    420.82346    439.38344    290.84852    34594.229 
   37900    303.30535   -1336.6752    392.17347    430.62773   -512.09892    34594.229 
   38000    290.63632    -1377.819    408.20028    348.07179    422.29552    34594.229 
   38100    294.86775   -1348.5955    416.02703    404.30653    289.30918    34594.229 
   38200    301.86926   -1391.3013    404.29569    381.61285   -83.919495    34594.229 
   38300    294.09919   -1356.9676    426.03409    402.45697    577.28158    34594.229 
   38400    294.01391   -1322.5831    381.59914    392.01988    566.65777    34594.229 
   38500    302.92009   -1315.6579      419.867    477.59187    287.52473    34594.229 
   38600    294.51916   -1325.5367    421.78207    431.53987    632.22704    34594.229 
   38700    295.58788   -1324.1792    432.38008    448.34079    816.24452    34594.229 
   38800    295.32864     -1344.13    431.22208    426.05666    874.61496    34594.229 
   38900    296.82565   -1322.1596    413.53186    437.12402     248.1509    34594.229 
   39000    301.71469   -1319.2506    407.14284    455.80999    306.12315    34594.229 
   39100    291.14985   -1332.4963    420.72464    408.24706    111.12519    34594.229 
   39200     293.9528   -1294.3256    406.01566    444.41685   -250.16771    34594.229 
   39300    309.24301   -1330.1105    433.68402    505.62326   -162.14529    34594.229 
   39400     292.6167   -1333.8157    422.54714    415.40056   -543.24525    34594.229 
   39500    294.07801    -1323.552    434.28101    444.02346    399.31311    34594.229 
   39600     307.6328   -1341.8808    419.79316    472.66164   -202.43921    34594.229 
   39700     300.5416   -1313.0291    412.10018    461.67019    518.80297    34594.229 
   39800    294.28212   -1325.9664    420.82561      429.079   -204.80769    34594.229 
   39900     302.1264   -1328.8491    407.92386    448.85907   -207.41747    34594.229 
   40000    304.06664   -1358.8937    399.37124    419.05856    117.92847    34594.229 
   40100    304.37798   -1359.9547      427.017    447.05489    103.42116    34594.229 
   40200     302.1662   -1385.6876    381.44785    365.72501    52.590328    34594.229 
   40300     294.5433   -1344.8976    403.50123     394.0076    198.80803    34594.229 
   40400    296.42418   -1350.2774    391.03576    384.68988    786.32474    34594.229 
   40500    298.57944   -1372.6297    411.89115    392.96455    342.04688    34594.229 
   40600    287.42562   -1367.0821    445.24967    381.30133    279.47378    34594.229 
   40700    301.20866   -1340.6749    414.68172    439.63025    128.96097    34594.229 
   40800    298.61957   -1347.0694     427.5265    434.34212   -10.936362    34594.229 
   40900    303.46955   -1366.7535    411.49467    420.61509    54.962275    34594.229 
   41000    308.74905   -1362.3482    435.33754    472.79953    271.15072    34594.229 
   41100    299.82498   -1404.3905    429.48034    384.43995    117.08589    34594.229 
   41200    296.75863   -1383.7171    395.59773    357.32845    31.953161    34594.229 
   41300    310.49841   -1386.9071    413.78353     434.6179    143.59764    34594.229 
   41400     295.0961   -1349.6237    421.60008    409.88668    107.37684    34594.229 
   41500    296.81074   -1349.6086    414.85224    410.92775      617.956    34594.229 
   41600    303.42971   -1403.9098    416.07007    387.85359    446.45983    34594.229 
   41700    307.10495   -1390.0135    426.36148    428.70412     212.6984    34594.229 
   41800    304.53009    -1346.723     417.3809    451.34006    396.51981    34594.229 
   41900     297.1774   -1372.1515    429.19457    404.38951   -458.89312    34594.229 
   42000     306.8086   -1350.7718    409.33674    449.57746    359.39021    34594.229 
   42100     288.6198   -1339.5645    428.25685    397.24027    257.87019    34594.229 
   42200    294.38562    -1362.622    430.28881    402.35589    436.14099    34594.229 
   42300    298.74263   -1351.6272    415.35201    418.16781    259.32694    34594.229 
   42400    302.70535   -1360.3705    416.71353    428.75223    607.13198    34594.229 
   42500    302.04483   -1383.0562    417.13622    403.49449    452.77746    34594.229 
   42600    290.08454   -1384.1293    417.68051    348.74006    671.08005    34594.229 
   42700    299.36052   -1411.3735    429.43062    375.30148    559.19581    34594.229 
   42800    296.85381   -1362.9903    455.10355    437.99263    790.05095    34594.229 
   42900    304.97229    -1369.802    435.37361    448.25868    50.392625    34594.229 
   43000    314.59638   -1378.2492    421.69322    469.76493    83.246996    34594.229 
   43100    305.70899   -1385.0306    426.59457    427.59114    282.39996    34594.229 
   43200    295.95295   -1378.0675    431.88743    395.61492    752.79946    34594.229 
   43300    293.86229   -1356.4319    423.31348    399.19795    305.98748    34594.229 
   43400     313.7816   -1370.1463    442.21674    494.69731    1176.2811    34594.229 
   43500    298.91392   -1350.8748    429.29245    433.63723    1409.7974    34594.229 
   43600     299.6078   -1308.8538    437.51298     487.0247    1328.1695    34594.229 
   43700    304.97366   -1371.7716    429.07188    439.99359    773.48446    34594.229 
   43800    304.77902   -1378.1122    443.98789    447.68644    996.71463    34594.229 
   43900     306.3744   -1379.0099    432.99624    443.03032     906.7687    34594.229 
   44000    299.57753   -1416.7527    445.44258    386.91808    1132.2462    34594.229 
   44100    307.03084   -1397.8883    438.11642    432.24826    1073.3745    34594.229 
   44200    301.82428    -1432.683    395.08754     330.8191    704.49947    34594.229 
   44300    300.08797   -1419.8176    422.89591    363.62074   -104.32612    34594.229 
   44400    299.73228   -1406.6758    419.71513    371.96914    203.00918    34594.229 
   44500    306.46362    -1381.606    429.18659    437.02911   -141.15052    34594.229 
   44600    306.32119   -1380.4184     419.1139    427.49823   -487.12383    34594.229 
   44700     302.5478   -1409.5086    403.95213    366.13834   -444.79589    34594.229 
   44800    310.34377    -1405.641    433.65969      435.059   -132.98877    34594.229 
   44900    302.87471   -1392.9046    417.85892    398.13136    111.15672    34594.229 
   45000    310.16949   -1391.0723    428.38776    443.56561    161.63858    34594.229 
   45100    294.01585    -1425.176    414.89028    322.72687    68.273187    34594.229 
   45200    303.57453   -1409.8338    426.17263    392.68867    461.82703    34594.229 
   45300    299.45711   -1371.8085    437.58471    423.45854    583.18912    34594.229 
   45400    310.79297   -1364.9055     445.4516    489.62299    506.66209    34594.229 
   45500     291.8831   -1421.6165    450.19791    351.92458    577.37732    34594.229 
   45600    294.89453    -1358.639    441.90647    420.26388   -189.85068    34594.229 
   45700    287.72422   -1362.6229    439.26139    381.12606   -384.37903    34594.229 
   45800    301.05443    -1355.084    427.64199    437.48218   -755.03371    34594.229 
   45900    305.43512    -1400.622    430.95564    415.11904   -776.89047    34594.229 
   46000    298.07664   -1383.6854    438.34896    406.08708   -515.74451    34594.229 
   46100    292.53327   -1357.4912    444.36741    413.16704    -794.1622    34594.229 
   46200    297.31481   -1377.2807    433.01597    403.70473   -696.58418    34594.229 
   46300    299.05888   -1399.5785    425.21727    381.51555   -248.65189    34594.229 
   46400    297.06285   -1405.9586     421.3073    362.17588   -173.68878    34594.229 
   46500     304.2387   -1400.1215     420.9591    400.19871   -81.204223    34594.229 
   46600    296.93376   -1387.6439    425.85077    384.44876   -282.09407    34594.229 
   46700    305.10435   -1432.3171    403.13238    354.10105   -196.43972    34594.229 
   46800    302.98313   -1423.2525    420.70813    371.12422    546.08338    34594.229 
   46900    295.54038   -1415.6597    418.97394    343.23874    8.6009364    34594.229 
   47000    309.63652   -1434.0798    437.01033    406.76429   -54.138306    34594.229 
   47100     298.7046   -1386.1223    434.48287    402.63105    333.87785    34594.229 
   47200    308.02032   -1374.4492     409.2311    431.28816    432.41602    34594.229 
   47300    308.51767   -1373.3921    432.09151     457.4606    646.46789    34594.229 
   47400    297.60978   -1410.2838    451.45632    390.47934    503.90118    34594.229 
   47500    304.64151   -1403.2102    428.07676    406.05394    397.10686    34594.229 
   47600    288.72557   -1400.0703    455.77191    364.72906    488.39429    34594.229 
   47700    298.93521   -1438.4466    464.10236    380.97185    641.11883    34594.229 
   47800    294.00257   -1414.6117    422.21666    340.55735    233.06616    34594.229 
   47900    305.08636   -1397.1904    411.84694    397.86075    619.89583    34594.229 
   48000    291.89664   -1427.9086    423.44431    318.94021    139.06924    34594.229 
   48100    299.39319   -1416.5024    441.58932    382.47939   -140.89752    34594.229 
   48200    294.98675     -1341.67    442.55791    438.30243    287.13946    34594.229 
   48300    311.12245   -1391.9057    450.50326    469.16824    -152.6996    34594.229 
   48400     303.6251   -1355.2566    441.74957    463.07208    292.06922    34594.229 
   48500    299.75482   -1371.9127     440.9227    428.04203   -129.48459    34594.229 
   48600    303.69124   -1338.8957    430.89786    468.88115    876.52164    34594.229 
   48700    297.02239   -1362.1436     462.4301    446.93021    130.71669    34594.229 
   48800     295.4272    -1358.834    450.77599    431.35341   -121.18967    34594.229 
   48900    303.91862   -1385.8651    464.19582    456.24069    122.95036    34594.229 
   49000    300.36559   -1384.1776    464.84324    442.46673     253.1206    34594.229 
   49100    290.89305   -1412.3608    452.03884    358.53251   -243.94834    34594.229 
   49200    304.92964   -1390.9336    437.52479    429.08489   -286.76395    34594.229 
   49300    300.23127    -1423.873    436.00223    373.32141    586.95866    34594.229 
   49400    300.11085   -1453.3192    464.32033     371.6473   -6.5388236    34594.229 
   49500    307.62631   -1397.6575    437.46495    434.52729    109.43788    34594.229 
   49600    313.27478   -1427.0625    432.40897    425.67544    367.46278    34594.229 
   49700    305.56415   -1433.4148    429.52644    381.48206    550.31197    34594.229 
   49800    298.53439   -1386.2366    414.85234    382.11456    921.93493    34594.229 
   49900    298.46288   -1407.7443    438.60925    384.03961     135.9095    34594.229 
   50000     309.8419   -1402.5133    448.77426    451.02592    812.03283    34594.229 
   50100     288.6971   -1437.8168    439.13487    310.21652    405.77214    34594.229 
   50200    295.92345   -1427.6172    435.73536    349.77952    -334.4279    34594.229 
   50300    295.44059   -1437.6624    440.58649    342.39621   -174.05832    34594.229 
   50400    294.15075   -1401.0659    443.76965    376.32796    34.491335    34594.229 
   50500    307.28293   -1416.2752    453.93088    430.81873    90.559074    34594.229 
   50600    293.66717   -1411.4651    442.27837    362.24501    43.852632    34594.229 
   50700    297.29279    -1387.991    438.93196    398.81062    122.72217    34594.229 
   50800    293.90566    -1368.505    489.45528    453.46334    225.17266    34594.229 
   50900    299.35086   -1403.2655    462.59806    416.53314    -119.9332    34594.229 
   51000    297.13741   -1431.2841    439.85767    355.73877   -22.510178    34594.229 
   51100    291.38291   -1416.3486    441.83448    346.56117    377.20093    34594.229 
   51200    298.49086   -1397.8421    454.82971    410.28907    151.46619    34594.229 
   51300    304.86007    -1400.641    462.60964    444.14696   -238.82976    34594.229 
   51400    302.35816   -1371.6244    457.22556    456.43619    829.22398    34594.229 
   51500    302.43536   -1417.9859    432.12605    385.32522   -61.154449    34594.229 
   51600    303.08293   -1380.0002    432.96786    427.08874    131.04875    34594.229 
   51700    293.22652   -1394.1089    447.93455    383.25959    409.48244    34594.229 
   51800    309.01909    -1406.625    422.02464    416.43413    353.49825    34594.229 
   51900    296.46865   -1389.5058    465.83326    420.46061   -250.38827    34594.229 
   52000    287.15566   -1363.0551     447.4387     386.2934    591.14296    34594.229 
   52100    305.24477   -1364.2854    485.65388    505.29095    645.79664    34594.229 
   52200    298.13337   -1408.2153    438.90704    382.37245    320.52214    34594.229 
   52300    297.60787   -1395.8247    462.84278    416.31626    231.67592    34594.229 
   52400    299.00775    -1401.465    463.38475    417.56474   -21.437281    34594.229 
   52500     309.9549   -1390.4211    444.69834    459.55447    334.72396    34594.229 
   52600    304.73362   -1369.1967    448.58668     460.9949    -199.9805    34594.229 
   52700    311.87502   -1384.1141    454.55266    484.42131    235.74711    34594.229 
   52800    299.77229    -1399.036    470.54544    430.62069     408.4244    34594.229 
   52900    307.02847   -1404.7936    476.07243    463.28819     435.5261    34594.229 
   53000    300.03804   -1436.8113     458.3247    381.82945    92.375019    34594.229 
   53100    297.21641   -1408.2557    472.93605    412.20377   -580.66227    34594.229 
   53200    299.89664   -1393.3271    449.76923     416.1171    -62.78526    34594.229 
   53300    309.62597   -1386.8195    464.79188    481.75834    263.11156    34594.229 
   53400    309.69497   -1338.3774    455.66359    521.38502    641.24371    34594.229 
   53500    296.90292   -1369.5518    470.79077    447.34105   -132.74959    34594.229 
   53600    299.49462   -1380.3685    457.66772    435.15156    395.47642    34594.229 
   53700    286.90724   -1402.1868    473.30246    371.89923   -67.798058    34594.229 
   53800    293.01109    -1395.238    488.07654    421.29579    865.82603    34594.229 
   53900    291.87867   -1430.2218    458.02735    351.12855    373.73672    34594.229 
   54000    298.64543   -1438.0827     467.5036    383.42317    446.61253    34594.229 
   54100    295.81161   -1452.2469    450.54567      339.453    315.70474    34594.229 
   54200    288.48395   -1421.0129    458.44444     345.3636    338.90442    34594.229 
   54300    306.95764   -1430.2223    445.54052    407.00645   -242.01959    34594.229 
   54400    293.36482   -1440.6443    468.01616    357.43285   -428.39963    34594.229 
   54500    309.64785   -1435.3558    466.10833    434.63773    -417.0466    34594.229 
   54600    294.13148    -1458.693      447.862    322.70584   -811.61939    34594.229 
   54700    285.80738   -1467.7426    434.89607    262.95044   -708.97626    34594.229 
   54800    301.03589   -1420.4847    448.76685     393.1223   -500.34636    34594.229 
   54900    295.93474    -1395.723    453.53354    399.52304    56.541214    34594.229 
   55000    303.57536   -1413.9784    462.32258     424.6978     691.0474    34594.229 
   55100    301.94833   -1408.8741    457.13196    417.23481    226.93246    34594.229 
   55200     296.1993   -1475.4675    442.56005     310.0045    -308.1704    34594.229 
   55300    302.60074     -1466.21    424.24486    329.96977   -168.65061    34594.229 
   55400    296.92606   -1464.4804    446.14611     327.8727    358.48602    34594.229 
   55500    299.48451   -1468.5505    453.39886    342.65485     178.2797    34594.229 
   55600    302.33623   -1436.9337    465.73381    399.53577    539.54226    34594.229 
   55700    300.27862   -1446.4706    457.24694    372.18317    350.04364    34594.229 
   55800     313.0638   -1442.8031    446.33942    422.90873    115.65892    34594.229 
   55900    291.21725   -1458.2532    471.51948    333.59054   -201.61459    34594.229 
   56000    305.41218    -1453.409    463.23474    394.50721   -482.78712    34594.229 
   56100    305.03726   -1440.7859    437.05783    379.25355    217.39073    34594.229 
   56200    303.30106   -1403.0287     479.6286    451.70994   -129.65462    34594.229 
   56300    299.07053   -1401.5911    465.17884    419.51733   -313.31996    34594.229 
   56400    300.68312   -1468.4217    445.68522    340.50431   -558.44629    34594.229 
   56500    311.96729   -1473.3215    464.86029    405.93985   -341.40692    34594.229 
   56600    302.40052   -1447.3448    479.65672    403.33908   -293.44102    34594.229 
   56700    311.70242   -1432.6802    475.11638    455.63635    7.8174087    34594.229 
   56800    290.13739   -1448.8412    469.46925    336.05648    214.81321    34594.229 
   56900    306.44841   -1465.6971    432.02351    355.70592    330.62087    34594.229 
   57000     296.6174    -1429.224    465.68061    381.26416     542.2948    34594.229 
   57100    307.75925   -1392.5812     467.0662    469.80757    628.69667    34594.229 
   57200    305.97011   -1434.1234    451.24981    404.33736    571.31418    34594.229 
   57300    287.08324   -1386.7391    463.02077     377.8631    638.72558    34594.229 
   57400    305.74464   -1407.5155    478.39202    457.06529    403.20608    34594.229 
   57500    284.37474   -1431.7939    482.92988    340.43766    349.86447    34594.229 
   57600    299.65012   -1475.7297    447.83322    330.66089    89.343065    34594.229 
   57700     290.2832   -1473.9798    453.62951    295.73925    128.25638    34594.229 
   57800     308.2018   -1475.0409    473.41883    395.70697    599.15265    34594.229 
   57900    298.59595   -1461.9016    487.30199     379.1783    511.95602    34594.229 
   58000    308.94736   -1405.1767    472.75665    468.28921    45.917677    34594.229 
   58100    297.66231   -1426.6147     447.9832    370.91347   -560.64551    34594.229 
   58200    299.62094   -1469.4528    454.67047    343.64269   -376.00777    34594.229 
   58300    298.43267   -1445.5681    444.69199    352.16151   -119.00731    34594.229 
   58400    301.10557   -1486.9673    452.90559    331.09437   -54.017393    34594.229 
   58500      291.439   -1485.9339     461.6245    297.02028    93.410582    34594.229 
   58600    308.72386   -1449.2868    462.95986    413.36902    37.571314    34594.229 
   58700    297.22896   -1458.2572    452.70578    342.02882   -190.73828    34594.229 
   58800     307.3741   -1486.1198    448.24523    355.70184   -702.26412    34594.229 
   58900    294.52995   -1435.4008    449.02088    348.96356   -531.65949    34594.229 
   59000    298.89245   -1441.3965    499.39446    413.12017   -1330.6606    34594.229 
   59100    307.91785    -1421.167    462.60955    437.48419   -503.31926    34594.229 
   59200    293.40866   -1430.0336    479.61732    379.84342   -381.16261    34594.229 
   59300    309.31949   -1436.7232    495.45128    461.12452    371.64159    34594.229 
   59400    300.40605   -1436.7986    474.63327    399.81929    525.45126    34594.229 
   59500    294.40615   -1468.2294    479.07034    345.62308    841.21514    34594.229 
   59600    297.82128   -1437.8703    482.69614    395.09152    251.13833    34594.229 
   59700    304.24228   -1420.8402    482.39492    440.93203   -89.004011    34594.229 
   59800    289.88459   -1434.2682    475.32692    355.34094    786.43792    34594.229 
   59900    295.96605    -1422.474    486.61619    405.99665    827.67838    34594.229 
   60000    303.96227   -1460.7217    469.33367    386.71973    759.38305    34594.229 
   60100    300.97574   -1477.3757    472.69625    359.88799   -20.536033    34594.229 
   60200    293.41509   -1490.8669    472.30757    311.72955   -747.11678    34594.229 
   60300    290.55502   -1497.2874    457.17126    277.20578    72.407976    34594.229 
   60400    300.91218   -1463.7103    454.72548     355.2945    633.39958    34594.229 
   60500    303.50737   -1454.8143    476.38748    397.61855    445.01824    34594.229 
   60600    298.35596   -1484.8636    449.93619    317.76245   -28.672083    34594.229 
   60700     300.5628   -1461.3402    468.96598    370.32107    299.84118    34594.229 
   60800    293.32032   -1485.9776    467.52704     311.4086   -73.223527    34594.229 
   60900    294.81744   -1476.0534     462.5209    323.11436     85.26609    34594.229 
   61000    305.53879   -1493.3343     455.7884     347.7096   -182.68974    34594.229 
   61100    296.71013   -1482.5157    465.45656    328.16885    738.31789    34594.229 
   61200    305.22343    -1471.233    465.93146    378.52408    356.31353    34594.229 
   61300    305.28932   -1448.9385    468.30724    403.49316    539.87395    34594.229 
   61400    300.57313   -1498.9642    461.32474    325.10264    442.74859    34594.229 
   61500    300.61059   -1485.8837    464.62321    341.65137    157.68835    34594.229 
   61600    293.30716   -1466.3737    477.91098    341.33677   -88.726367    34594.229 
   61700    313.13067   -1448.2749    451.75604    423.15676   -221.32886    34594.229 
   61800    305.03145   -1498.8251    470.57072    354.70084    42.914177    34594.229 
   61900    302.89361   -1480.1304    505.17205    398.30439    138.02817    34594.229 
   62000    288.81808   -1507.5514    483.27383    285.16932   -563.28837    34594.229 
   62100     292.9062   -1455.4606    476.14555    348.66665   -470.97354    34594.229 
   62200    304.27586   -1517.9419    486.86602    348.45368   -296.63802    34594.229 
   62300    307.96367   -1485.2592    455.86597    366.85615   -209.41506    34594.229 
   62400    305.95997   -1482.3581    462.03055     366.8375    159.18023    34594.229 
   62500    300.09525   -1477.2792    475.12227    358.41853   -209.02131    34594.229 
   62600    298.75722   -1424.7065    485.30133    415.10398   -72.735576    34594.229 
   62700    295.43916   -1432.6704     479.2007    385.99588   -97.288966    34594.229 
   62800    306.97975   -1423.9806    465.41259    433.22042    426.00978    34594.229 
   62900    293.48115   -1398.5071    466.72935    398.81065   -15.112192    34594.229 
   63000    301.84166   -1404.3686    481.22636    445.35108   -99.934395    34594.229 
   63100     298.2126   -1445.7072    468.87381    375.20652   -195.57913    34594.229 
   63200     300.2737   -1465.3048    501.29583    397.37551   -93.408468    34594.229 
   63300    304.29193   -1409.1765    476.08727    446.51322    313.26716    34594.229 
   63400     294.6654   -1425.9968    487.68764    397.64837    671.47689    34594.229 
   63500    300.00218   -1474.9446    488.02212    373.23104    706.01129    34594.229 
   63600    300.18513   -1488.8604    476.07973     348.2023    138.56519    34594.229 
   63700     298.7633   -1503.4101    466.98681    318.11342    84.154982    34594.229 
   63800    289.53316   -1472.8651    495.92422    335.74806    314.10422    34594.229 
   63900    299.80439   -1488.0938    460.63726    331.80026    297.06455    34594.229 
   64000    300.54361   -1452.3305    480.71884    390.99656   -454.78218    34594.229 
   64100    301.94867   -1439.9379    485.80902    414.84962   -357.21941    34594.229 
   64200    302.31682   -1450.1458    475.36697     395.8688   -324.20662    34594.229 
   64300    294.88454   -1449.7607    465.51351    352.70386   -622.32448    34594.229 
   64400    305.46746   -1425.4137    495.26636    454.78473   -272.91641    34594.229 
   64500    302.68867   -1464.1636    450.88168    359.05163   -221.00659    34594.229 
   64600    294.60184   -1480.0987    440.49094    296.06164   -376.45814    34594.229 
   64700    304.80537   -1462.4766    473.75697    393.21067   -402.09955    34594.229 
   64800    299.26498   -1437.4787    481.26789    400.60036     -572.003    34594.229 
   64900     297.3281    -1443.709    491.46494     395.7857   -343.93558    34594.229 
   65000    308.48814   -1484.9701    457.24035    370.89751   -192.02044    34594.229 
   65100    303.28391   -1479.9196    479.52438    374.63701     313.3344    34594.229 
   65200    290.71702   -1462.8436    480.38709    335.59984    117.81539    34594.229 
   65300    300.77884   -1429.6782    489.45551    423.45205    294.47943    34594.229 
   65400    300.14257   -1466.3258    478.06807    372.53229    462.48639    34594.229 
   65500    298.81411   -1453.1399     495.7603    397.38746    -215.6752    34594.229 
   65600     294.6661   -1463.6179    451.25056    323.59337   -647.23648    34594.229 
   65700    307.65055   -1463.2052    487.41485    419.03941    112.62697    34594.229 
   65800    300.91165   -1467.2164    483.21642    380.27695    258.37871    34594.229 
   65900     302.9265   -1453.5672    462.57151    382.41613   -525.55814    34594.229 
   66000    294.44415   -1481.4594     460.9424    314.43741   -150.50727    34594.229 
   66100    308.39418   -1503.4272    478.61675    373.39075    453.39588    34594.229 
   66200    291.04423   -1500.7503    476.21406    295.00356    218.41092    34594.229 
   66300    297.94565   -1485.2352    453.23838    318.83277    386.87578    34594.229 
   66400    306.20123   -1484.3311     449.6257    353.55345    -69.73655    34594.229 
   66500    294.09432   -1477.1301    454.48045    310.71877   -250.73281    34594.229 
   66600    306.68635   -1481.1008    486.94582    396.30327   -403.56432    34594.229 
   66700     292.1429    -1473.144     496.8227    348.19969   -341.03291    34594.229 
   66800    305.31809   -1457.2928    471.53353    398.49552   -119.86463    34594.229 
   66900    292.24287   -1463.7901    461.64255    322.82674   -406.83004    34594.229 
   67000    306.85004   -1425.2149    471.23947    437.22498    29.853891    34594.229 
   67100    291.34708   -1448.4305    494.11101    366.59344     458.8553    34594.229 
   67200    294.54704   -1451.1229    473.79089    358.08894   -276.56402    34594.229 
   67300     292.9534   -1434.5014    472.54678    366.24107    136.80348    34594.229 
   67400    308.75231   -1437.5264    452.39071    414.68928    185.12496    34594.229 
   67500    302.51465   -1469.4803    461.96806    364.03235   -145.72571    34594.229 
   67600    287.74147    -1478.415    482.42425    308.57502    -708.3621    34594.229 
   67700    310.61079   -1432.7676    474.99323    450.47662   -90.676741    34594.229 
   67800    301.18329   -1432.2934    482.83163    416.04673   -846.04599    34594.229 
   67900    300.88193   -1465.8921    458.68563    356.93566   -513.35261    34594.229 
   68000    302.60999   -1431.5087    487.15954    427.62766   -178.22655    34594.229 
   68100    305.22787   -1417.2989    453.05193    419.59884   -497.56371    34594.229 
   68200    300.39487    -1420.007    475.59785    417.52479    -463.1099    34594.229 
   68300    296.26486   -1492.8202    466.08256     316.4716   -227.18109    34594.229 
   68400    300.70455    -1434.885    492.82079    421.27369    604.92634    34594.229 
   68500    296.60113   -1422.5428    463.88817    386.07912    458.58775    34594.229 
   68600     305.9499   -1414.8388    485.13836    457.41896     379.1157    34594.229 
   68700    293.23355   -1378.2652     492.4711    443.67166    191.36824    34594.229 
   68800    289.24003   -1434.0828    488.25333    365.53047    201.56065    34594.229 
   68900    294.50773   -1431.7804    488.89387    392.35618    90.935694    34594.229 
   69000    303.00927   -1385.4672    501.03369     489.3536    174.97911    34594.229 
   69100    301.53557   -1431.1752    472.87883    408.80925   -144.43283    34594.229 
   69200    299.34638   -1446.3609    454.16583    364.98518    3.6951253    34594.229 
   69300    301.53035   -1427.8525    478.12592    417.35536   -373.28612    34594.229 
   69400     299.4606   -1455.5371    490.78215    392.94308    -526.5684    34594.229 
   69500    310.23974   -1442.7016    479.07897    442.94609   -298.69419    34594.229 
   69600    297.11172   -1447.2587    494.64208    394.43211   -540.73334    34594.229 
   69700    295.81335   -1433.7483    456.48276    363.89663   -24.624486    34594.229 
   69800    301.52635   -1450.5821    486.70605    403.18778    186.62269    34594.229 
   69900    303.21911   -1443.9966    483.89802    414.63989    465.10385    34594.229 
   70000    293.05692   -1467.4467    498.45023    359.66854    1014.4626    34594.229 
   70100    302.34356   -1460.0207    499.25735    410.00555    1506.7041    34594.229 
   70200    296.39881   -1418.5748      480.521    405.76271    943.29865    34594.229 
   70300    308.85967   -1447.9003    467.98916    420.40055    421.21005    34594.229 
   70400    298.08717   -1468.5483    488.16777    371.09065    591.27819    34594.229 
   70500    295.40991   -1534.0197    487.77914     293.0925    395.84378    34594.229 
   70600    296.40021   -1489.8023    469.15082    323.17138    49.256793    34594.229 
   70700    296.20559   -1503.2448    451.39454     291.0902    204.11262    34594.229 
   70800    307.40969    -1449.757    484.29858    428.27935   -123.38091    34594.229 
   70900    298.82464   -1452.5141    497.53523    399.83586    165.07537    34594.229 
   71000    308.08939   -1475.3323    475.73273    397.21986   -52.530804    34594.229 
   71100    291.69597   -1452.9296    472.20474    341.76983   -665.70004    34594.229 
   71200    298.68248   -1471.3262     471.8605    354.70451   -148.03656    34594.229 
   71300    311.86667   -1466.3156    459.26355    406.89282   -449.13998    34594.229 
   71400    295.54931   -1454.7173    458.34216    343.58984   -961.28774    34594.229 
   71500    300.63676   -1478.5131     448.7999    333.31739   -406.13692    34594.229 
   71600    303.25769   -1466.7551    451.40463     359.5629   -17.750183    34594.229 
   71700    294.82727   -1448.8162    458.71605    346.59133   -446.23038    34594.229 
   71800    301.68998   -1474.1074     466.2988    359.99706   -35.226018    34594.229 
   71900    291.06773   -1462.0226    464.06821    321.69194   -278.53237    34594.229 
   72000    303.90478   -1457.1604    468.26075     388.9475    345.47906    34594.229 
   72100    290.85215   -1466.9315     435.2995    287.03695    638.63035    34594.229 
   72200    297.69162   -1477.7841    465.98707    337.88078    410.72797    34594.229 
   72300    306.84697   -1422.8209    457.24447    425.61009    166.83118    34594.229 
   72400    304.31979   -1452.4693      442.476    369.73548   -422.32415    34594.229 
   72500    298.91585   -1391.6198    472.33356    435.94204   -583.73216    34594.229 
   72600    298.19826   -1416.5753    462.67796    398.07758   -719.77861    34594.229 
   72700    302.52683   -1452.4635    475.89879    395.03504   -1155.9735    34594.229 
   72800    298.19745   -1445.9476    472.83701    378.86058   -342.79739    34594.229 
   72900    305.71118   -1443.4297    447.42302    390.03039   -826.02171    34594.229 
   73000    305.25902   -1453.2075    483.71621    414.49581   -610.15109    34594.229 
   73100    299.47684   -1469.3073    469.53174     357.9962   -429.86344    34594.229 
   73200    307.46192   -1432.7021    450.20652      411.479    186.51117    34594.229 
   73300    300.41097   -1417.9025    465.79911    409.90352    177.00424    34594.229 
   73400    301.86781    -1435.988    466.78316    399.40706   -31.631815    34594.229 
   73500    293.47628   -1452.1463    440.40275    318.82276   -453.12571    34594.229 
   73600    299.05498   -1478.4033    503.01778     380.4736   -562.39156    34594.229 
   73700    297.15228    -1421.639    476.22455    401.81816    185.65577    34594.229 
   73800    295.34233   -1422.6687    495.61206    411.96996    16.878991    34594.229 
   73900    309.90917   -1451.9359    479.23056     432.3646   -246.34243    34594.229 
   74000    285.90528   -1435.8321    474.87801    335.28675   -549.37637    34594.229 
   74100    302.85389   -1438.9196    483.15895    417.32199    169.87188    34594.229 
   74200    301.55597   -1429.0822    473.37297    411.48889   -689.34772    34594.229 
   74300    300.39526   -1450.5258    477.60065    389.01052    160.19754    34594.229 
   74400    298.00314   -1428.9737    489.03446    411.15099    330.95102    34594.229 
   74500    308.65886   -1433.6154     472.6533    438.43916    328.28458    34594.229 
   74600    299.04234   -1431.4881     494.1321     418.4458   -440.62042    34594.229 
   74700    306.94166   -1437.5219    474.93631    429.03022    847.71691    34594.229 
   74800    297.50287   -1444.4377    488.13583    392.52027     320.1453    34594.229 
   74900    299.30941   -1463.6019    491.88651    385.29722   -77.537342    34594.229 
   75000    301.33076   -1469.3514    468.94278    365.76847     -464.534    34594.229 
   75100    301.12739   -1417.1512    489.07854    437.18235    -107.5975    34594.229 
   75200    294.25705   -1460.7741    486.04711    359.37918   -489.39757    34594.229 
   75300    302.44744   -1448.5802    456.31654    378.97623   -67.917984    34594.229 
   75400    298.08252    -1421.858    485.85564    415.44782    263.61067    34594.229 
   75500    301.79055   -1430.7738     479.3611    416.84892    79.433018    34594.229 
   75600    303.51936   -1464.5657    481.98157    393.51559   -158.71186    34594.229 
   75700    295.47376   -1423.0935    476.53547    393.06451   -32.470628    34594.229 
   75800    302.78872   -1418.2311    499.44669    454.00273   -560.63724    34594.229 
   75900     295.1109   -1464.2787     451.3618    325.06049   -715.82984    34594.229 
   76000    305.81445   -1469.2701    457.27466    374.50981    9.1561901    34594.229 
   76100    292.33235   -1488.5146    484.98573    321.85102   -1203.0148    34594.229 
   76200    295.95417   -1461.3862    456.53761      336.952    69.678638    34594.229 
   76300     306.1716   -1503.5379    454.21138    338.79804    339.73177    34594.229 
   76400    295.68519   -1490.9315    493.50007    343.14966    251.51778    34594.229 
   76500    299.79961   -1508.4132    483.52841    334.35028    306.13856    34594.229 
   76600     296.7206   -1502.8986    480.09094    322.46778    489.83785    34594.229 
   76700    302.65373   -1498.7495    474.04187    347.46753    68.857825    34594.229 
   76800    295.71386    -1520.067    471.85061    292.49473    -7.946922    34594.229 
   76900    297.97093   -1467.2195    467.46041    351.18505    233.61004    34594.229 
   77000    296.69199   -1448.4842    485.36516    382.02671   -302.43423    34594.229 
   77100    296.62849   -1476.2909    473.75934    342.32624   -711.16324    34594.229 
   77200    304.69933   -1481.7066    473.28824    373.03109   -580.38972    34594.229 
   77300    302.72679   -1474.7082    455.43066    353.22887   -418.09471    34594.229 
   77400    295.28545   -1446.4842    473.33929    365.62387   -299.26831    34594.229 
   77500    307.84917   -1485.4404    474.32695    384.61682   -4.5251918    34594.229 
   77600     295.9945   -1454.8949    470.54211    357.63067   -78.315323    34594.229 
   77700    302.81269   -1465.8122    473.40105    380.48464   -586.06507    34594.229 
   77800    293.14821   -1507.4059     474.9354    296.60844    104.76567    34594.229 
   77900    300.39212   -1532.6331    479.29398    308.58232   -340.57408    34594.229 
   78000    299.37087   -1465.8711    429.50184    320.92201    302.69127    34594.229 
   78100    299.17402   -1464.4076    484.60903     376.6002   -308.99794    34594.229 
   78200    300.44703   -1494.9866    472.91571    340.09946   -519.81944    34594.229 
   78300    298.21054   -1482.1944    468.04283    337.87901   -451.49129    34594.229 
   78400    299.57338   -1472.3374    466.29687     352.1689   -364.70146    34594.229 
   78500     296.8815   -1489.2497    492.58096    349.33622   -101.98357    34594.229 
   78600    289.28564   -1501.4646    490.76858    300.87069    220.03991    34594.229 
   78700    294.91807   -1431.5533    489.71797    395.26777    386.93434    34594.229 
   78800    296.87157   -1474.3452    483.46967    355.08442   -315.07676    34594.229 
   78900    298.69438   -1461.3867     463.5916    356.42908   -461.11834    34594.229 
   79000    310.46331   -1489.4935    475.08639    393.17517   -562.35782    34594.229 
   79100    305.21613   -1467.7607    487.35148    403.38333    404.12771    34594.229 
   79200    301.21497   -1471.8664    464.06457    357.85024    923.74966    34594.229 
   79300    298.00442   -1456.3477    525.55289    420.30121    688.83651    34594.229 
   79400    312.68427   -1464.7086     507.2232    460.16634     1043.077    34594.229 
   79500    293.64182   -1457.5422    503.41413    377.18872    562.00723    34594.229 
   79600     296.8859   -1496.2796     499.7925    349.53781   -171.22856    34594.229 
   79700    300.79994   -1482.6339    470.88574    352.02229     222.5409    34594.229 
   79800     298.7292   -1503.1677    472.01911    323.23348    -15.54117    34594.229 
   79900    295.56065   -1495.4755    472.57861    317.11953    35.892722    34594.229 
   80000    304.19285   -1469.9458    492.71399    401.92135    154.02475    34594.229 
   80100    308.97982   -1489.0361    476.76126    388.58159    266.11979    34594.229 
   80200    301.34765   -1489.0199    474.80503    352.03873   -264.81934    34594.229 
   80300    287.36038   -1466.3517    490.54842     327.0347   -298.28261    34594.229 
   80400     298.6461   -1490.3577     481.4189    345.06647   -294.86116    34594.229 
   80500    289.14967   -1469.6776    508.97144    350.24409    558.55519    34594.229 
   80600    294.85773   -1481.8356    481.67868    336.67262    592.47863    34594.229 
   80700    311.45184   -1508.5042    471.57907      375.139     715.0501    34594.229 
   80800     297.7701   -1503.0723     481.9287    328.89011    683.94059    34594.229 
   80900    308.59406   -1471.5884    484.27233    411.79141    1127.9755    34594.229 
   81000    298.23078   -1495.4385     480.6468    337.33058     939.8314    34594.229 
   81100    291.20182   -1455.2946    483.23644    348.19621     1584.197    34594.229 
   81200    294.19614   -1493.3764    507.50517    347.95882    590.62226    34594.229 
   81300     306.4957   -1444.8084    500.81723    445.60277    566.89387    34594.229 
   81400    299.47964   -1469.9368    489.33294    377.18049   -45.325458    34594.229 
   81500    305.23313   -1494.5003    470.53398    359.90332    129.75552    34594.229 
   81600    312.68618   -1494.2631    478.52127     401.9186     361.7588    34594.229 
   81700    306.97373   -1509.8703    512.15126     394.0422     654.5973    34594.229 
   81800    292.32329   -1442.3166    482.62407    365.64632   -121.81967    34594.229 
   81900    306.32844   -1439.0566    490.97466    440.75361    27.679147    34594.229 
   82000    294.99033   -1494.2737    470.37795    313.53495    246.03507    34594.229 
   82100     296.0752   -1503.1737    498.96075    338.13638    304.66493    34594.229 
   82200    309.03822   -1501.3084    489.81174    389.62454    890.35389    34594.229 
   82300    310.77583   -1490.2458    495.85489    414.60826    509.62641    34594.229 
   82400    299.05066    -1472.549    469.41561    352.70605    152.18559    34594.229 
   82500    312.98972   -1487.2765    479.28089    411.04096     304.4501    34594.229 
   82600    299.64017   -1466.4215    493.06888    385.15959    150.11922    34594.229 
   82700    306.90356   -1508.4628     476.3319    359.31216     357.4419    34594.229 
   82800    298.65871    -1476.232    469.00347    346.83391    275.07011    34594.229 
   82900    294.97953    -1444.413    498.49258    391.46135   -349.30038    34594.229 
   83000    300.30899   -1463.0912     499.4357    397.88899   -357.20497    34594.229 
   83100    307.72626   -1467.6117    471.60729    399.16858   -130.49209    34594.229 
   83200    294.16551   -1488.2275    519.21906    364.68274    216.23182    34594.229 
   83300    296.47621   -1475.7651    490.74155    359.14392   -212.17766    34594.229 
   83400    297.77407   -1438.0416    492.27011    404.28017   -340.03452    34594.229 
   83500    298.45163     -1452.83    491.62112    391.91472   -404.24285    34594.229 
   83600    317.17082    -1458.433    497.50324    477.06311    255.51188    34594.229 
   83700    303.56531   -1436.0533    497.88416    438.13892       280.02    34594.229 
   83800    299.73981   -1456.4235    483.22234    385.76284    365.46225    34594.229 
   83900    301.52255   -1442.3268    495.69386    420.41365    178.00411    34594.229 
   84000    293.18114   -1457.4929    469.91783    341.65313    256.30552    34594.229 
   84100    303.64788   -1463.8908    498.03584    410.82752    537.39462    34594.229 
   84200    289.60961    -1472.756    459.91639    300.19592   -267.68178    34594.229 
   84300    290.69574   -1528.3726    468.60941    258.19662    116.80976    34594.229 
   84400    300.32725   -1498.7754    490.75705    353.60899   -114.23098    34594.229 
   84500     299.1064   -1522.3622    456.68299    290.41303   -501.42592    34594.229 
   84600    292.88887   -1470.8649    467.97417     325.0124   -1434.2936    34594.229 
   84700    293.53816   -1486.7482    478.65359    322.75227   -361.34345    34594.229 
   84800    301.49978   -1500.6943    485.83341    352.08249    -71.76625    34594.229 
   84900    298.57993   -1484.6108    504.65046    373.74497    216.27518    34594.229 
   85000    293.85257   -1458.5594     479.6196    353.33259   -358.28462    34594.229 
   85100    309.56049    -1499.875     503.4367    407.05078   -507.98434    34594.229 
   85200     299.7069   -1479.0975    486.07704    365.79433   -157.83395    34594.229 
   85300    296.53664   -1497.8508    480.27983    326.87044    225.97558    34594.229 
   85400    299.16296   -1455.5543    481.97583    382.77022   -57.515867    34594.229 
   85500    297.83717   -1489.2351    483.90095    345.00363    446.99695    34594.229 
   85600     304.0625   -1466.3251    479.07461    391.31178    100.14988    34594.229 
   85700    298.62796   -1504.0714      487.498    337.34966    667.51316    34594.229 
   85800    293.31025   -1488.6438    475.32607    316.49582    385.87892    34594.229 
   85900    305.10669   -1476.7224    479.65511    386.22906    128.07308    34594.229 
   86000    302.50446   -1520.2664    496.37869    347.61067    590.86037    34594.229 
   86100    296.46253   -1538.1153    491.11874    297.10883    299.68422    34594.229 
   86200    297.46043   -1535.1516    468.68468    282.16279    15.012729    34594.229 
   86300    304.27137   -1448.1298    495.27308    426.65252   -231.49139    34594.229 
   86400    309.63516   -1474.4767    461.68993    391.04083   -222.70561    34594.229 
   86500    303.31942   -1502.5538    459.85934    332.49876   -256.02608    34594.229 
   86600    299.73391   -1495.9755    486.82587     349.7876   -684.52173    34594.229 
   86700    310.28735   -1512.6637    461.11885    355.23965    -605.1417    34594.229 
   86800    303.70328   -1475.7213    470.71401    371.92634   -694.21005    34594.229 
   86900     298.7154   -1463.7953    487.13552    377.65969   -684.64296    34594.229 
   87000    295.49491   -1470.8514    488.80569    357.67266   -342.96143    34594.229 
   87100    300.21265   -1459.4179    473.03393    374.72383   -420.22107    34594.229 
   87200    299.25192   -1435.9097    512.01333    432.85566   -660.31711    34594.229 
   87300    301.95419   -1456.3632    497.75067    410.39105   -743.02834    34594.229 
   87400    304.48181   -1515.4213    466.08707     331.1291    -317.0251    34594.229 
   87500    294.40997    -1453.437     477.7615    359.12397    183.90084    34594.229 
   87600    296.34532   -1480.8514    483.90781    346.63046   -200.13533    34594.229 
   87700    302.20893   -1449.2828    464.18822    385.06386    374.49656    34594.229 
   87800    296.80277   -1451.0424    468.60289    363.20847   -45.108808    34594.229 
   87900    297.99233    -1522.797    484.33454    312.57875      497.787    34594.229 
   88000    299.90984    -1515.762     498.3075    342.28036    156.62841    34594.229 
   88100    291.56706    -1529.019    469.49088    262.38217    155.90079    34594.229 
   88200    303.03725   -1546.1402    463.19413    290.96789   -178.27877    34594.229 
   88300    294.38877   -1515.3328    485.35065    304.72116   -628.21454    34594.229 
   88400    313.26625   -1519.1034    470.18593    371.37289   -11.435333    34594.229 
   88500    310.49704   -1521.0998     485.3753    372.01075   -341.40733    34594.229 
   88600    292.87908   -1482.3486    511.08935    356.59948   -165.69478    34594.229 
   88700    306.24661   -1478.8668    516.74647    426.34428   -40.466337    34594.229 
   88800    299.05212   -1465.5524    464.10848    354.40216   -271.51691    34594.229 
   88900    298.67527   -1516.9471    468.28507    305.47554     230.8157    34594.229 
   89000    302.10433    -1501.031    471.63277    340.28606   -5.6976002    34594.229 
   89100     300.1085   -1526.9532    478.92679     312.6091    5.8290808    34594.229 
   89200    302.94459   -1519.2799    510.28561    364.49953   -259.76324    34594.229 
   89300    292.28684   -1534.4718    467.87774     258.5795   -748.01159    34594.229 
   89400    297.30754   -1504.4173    499.28188    342.80112    145.69636    34594.229 
   89500    295.75176   -1459.6941    499.36485    380.55358    141.54532    34594.229 
   89600    303.71094   -1523.5912    490.56538    343.94249    291.62806    34594.229 
   89700    293.02076   -1473.2403      494.418    349.67877    469.28285    34594.229 
   89800    296.54738   -1485.7328    500.99758    359.75488    302.71536    34594.229 
   89900     298.4696   -1498.6537    488.13543    342.68685   -79.364605    34594.229 
   90000    297.85257   -1496.4691    482.84568     336.7842   -333.00575    34594.229 
   90100    303.76934   -1486.2922    493.72917    384.67012   -65.823268    34594.229 
   90200    302.75508   -1480.0727    476.07952     368.6415    30.579266    34594.229 
   90300    298.79669   -1473.6948    491.56454    372.55781    76.072793    34594.229 
   90400    290.71859   -1489.3281    480.76379    309.49913    284.77947    34594.229 
   90500    309.78977   -1445.0964    513.48709    472.91923     557.6269    34594.229 
   90600    306.93561   -1417.6494    487.39414     461.3331    875.56681    34594.229 
   90700     292.9567   -1444.9211    487.66376    370.95333    892.05501    34594.229 
   90800    300.75643   -1437.6227    492.53101    418.48142    1047.0342    34594.229 
   90900    295.89321   -1420.8074    486.69632    407.41314    598.72786    34594.229 
   91000    298.88171   -1412.2529    506.99657    449.81718    432.10078    34594.229 
   91100     304.7982   -1430.6331    484.38128    435.64591    86.257108    34594.229 
   91200    306.35581   -1435.6878     483.2583     436.5302   -604.91063    34594.229 
   91300    301.76275   -1476.7631    517.17905    408.55158    -810.3021    34594.229 
   91400    307.38412   -1476.1686    488.49982    405.95305   -672.44421    34594.229 
   91500     294.8024   -1463.4814    480.04639    353.14363   -792.71532    34594.229 
[...]
  985200    294.28581   -1507.7241    517.75423    344.26668    -87.99802    34594.229 
  985300    297.99345   -1540.5383    505.97978    316.48784    189.47364    34594.229 
  985400    294.55004   -1513.7996    525.97383     347.6088   -263.64253    34594.229 
  985500    301.18726   -1534.7099    523.32055    354.13706    255.71884    34594.229 
  985600    296.24947   -1556.2305    518.97413    305.88307    875.19683    34594.229 
  985700    293.79565   -1554.0185    502.45684    280.45267    357.91564    34594.229 
  985800    301.51316     -1552.38    509.23511    323.85916    130.15903    34594.229 
  985900    296.31804   -1497.5889    528.68426    374.54573    736.93119    34594.229 
  986000    297.72447   -1503.9441    524.14461    370.02727    1056.5014    34594.229 
  986100    294.77117   -1535.1245    499.42732    300.73991    831.95151    34594.229 
  986200    301.81113   -1500.5043    524.17079    392.02144    823.89137    34594.229 
  986300    305.09626   -1544.9239    501.09514    339.42031  -0.61275652    34594.229 
  986400      306.833   -1544.7111    523.13099    369.54306   -796.15191    34594.229 
  986500    306.60774   -1532.3839    545.63207    403.35001   -443.28046    34594.229 
  986600    289.54103   -1537.7488     495.8103    270.78616   -307.83623    34594.229 
  986700    296.65172   -1539.1218    497.84973    303.69107   -43.089226    34594.229 
  986800    299.65586   -1579.3039    504.23438     283.5138    286.56154    34594.229 
  986900    304.70954   -1594.4643    507.70755    294.73907   -329.99839    34594.229 
  987000    299.80654   -1548.0085    521.26616    332.52416   -172.23338    34594.229 
  987100     304.7768   -1544.9994    494.07817    330.87954   -129.31154    34594.229 
  987200    306.99861   -1511.4415    482.85701    363.28953    497.32464    34594.229 
  987300    299.29098   -1508.9533    493.06804    341.04377   -65.340155    34594.229 
  987400    311.02107   -1498.4781    506.86701    418.49997    55.391105    34594.229 
  987500    303.39844   -1549.3603    511.54185    337.73309    427.63494    34594.229 
  987600    292.80362   -1549.7258    536.02956    313.82034    421.22832    34594.229 
  987700    294.65416   -1580.2417    512.62945    268.29439    153.44963    34594.229 
  987800    289.70779   -1547.1005    507.85922    274.23941   -522.52537    34594.229 
  987900    300.07523   -1514.1699     510.8257    357.14044   -1096.4053    34594.229 
  988000     308.2717   -1484.8381    498.24373    411.05161   -1182.3164    34594.229 
  988100    302.58121   -1502.5968    505.00334    374.25292   -204.07212    34594.229 
  988200    286.72635   -1525.4622    501.36285    275.86409   -319.70683    34594.229 
  988300     298.1913    -1555.245    475.72729    272.42557   -56.896971    34594.229 
  988400    303.08443   -1559.9513    506.50519    320.68172   -110.92208    34594.229 
  988500    303.33053   -1536.1934    533.77629    372.82646   -582.87769    34594.229 
  988600    293.18264   -1529.9533    461.18727    260.46893   -540.83303    34594.229 
  988700    296.59157   -1578.7649    506.48844    272.41398   -291.33095    34594.229 
  988800    285.12733   -1554.5397    491.91207    230.08613     210.1677    34594.229 
  988900    306.93672   -1526.3055    498.95193    364.23983    349.69921    34594.229 
  989000    302.09361    -1542.069    504.16285    331.72949    -312.6561    34594.229 
  989100    305.04756   -1537.7383    495.24787     340.5379    159.10585    34594.229 
  989200    297.40826   -1486.9545    480.08918    341.52783    75.815027    34594.229 
  989300     297.3924   -1513.6314    495.16596    329.85579    -409.9437    34594.229 
  989400    306.68826   -1492.3439    517.94154    416.06456   -34.873487    34594.229 
  989500    302.80615   -1551.9216    529.57875    350.52329    668.09753    34594.229 
  989600    297.49258   -1497.1505    517.56572    369.19069    968.54513    34594.229 
  989700    287.68554   -1505.5393    524.50733    323.28017    1132.4474    34594.229 
  989800    296.18123   -1501.3542    500.81255    342.28842    896.40127    34594.229 
  989900     293.1027   -1553.4555    532.71608     308.1331   -112.49507    34594.229 
  990000    302.81641   -1514.4477    517.48656    375.95162   -161.31822    34594.229 
  990100    299.27318   -1554.0307    486.53656    289.35424    92.528439    34594.229 
  990200    308.43347   -1553.1218    538.72619    383.98379   -551.85989    34594.229 
  990300    295.81276   -1515.4668    494.58502    320.27771   -354.95912    34594.229 
  990400    299.62453   -1532.8374    492.62477    318.22872    -418.4727    34594.229 
  990500    298.41235   -1548.8386    505.49853    309.60545   -788.78914    34594.229 
  990600    297.04762   -1520.1916    467.99417    294.56067   -468.68577    34594.229 
  990700    307.01974   -1530.2002    516.68253    378.45211   -210.08942    34594.229 
  990800     300.7426   -1534.1375    485.41012    314.78302   -6.6546529    34594.229 
  990900     295.0047   -1532.0083    508.64988    314.13746    50.447716    34594.229 
  991000    299.08801   -1526.0216    513.81465    343.80191   -276.76831    34594.229 
  991100    290.21814   -1556.0646    506.42186    266.15182   -500.94788    34594.229 
  991200    307.51397   -1510.0676    494.14411    378.28706   -92.282511    34594.229 
  991300    305.55712   -1546.6585    488.72408    327.40411   -156.34291    34594.229 
  991400    305.11323   -1553.9878    510.79588    340.13413   -110.44552    34594.229 
  991500    295.47487   -1505.8592     497.6126    331.38089   -230.87219    34594.229 
  991600    297.47787   -1566.4406     483.0021    265.27032   -379.86563    34594.229 
  991700     303.2548   -1587.0243     511.9574    299.83339    352.43541    34594.229 
  991800    298.71266   -1564.2833    492.95373    282.97756     257.2312    34594.229 
  991900    306.10633   -1562.8518    506.24771    331.22453     867.1104    34594.229 
  992000    309.73628   -1547.9162    512.03306    368.40292    438.11519    34594.229 
  992100    299.92676   -1562.8343    507.72933     304.7066    940.38537    34594.229 
  992200    294.92627   -1551.2749    480.60183     266.4672   -342.92973    34594.229 
  992300    304.33437   -1555.0562    524.61368    349.35235    540.93782    34594.229 
  992400      306.229   -1552.8016    499.79677    335.37987    118.57944    34594.229 
  992500    294.92312   -1570.7186    495.88354    262.29089   -323.87895    34594.229 
  992600    292.48924   -1556.5629    499.83339    269.36169   -988.06508    34594.229 
  992700    297.10656   -1551.6666    531.95363    327.31232    -263.1457    34594.229 
  992800    306.77464   -1583.4715    503.47065     310.8577   -351.21298    34594.229 
  992900    300.98667   -1562.2132    514.56852    316.97233   -462.38194    34594.229 
  993000    301.29678   -1519.9454    512.48158    358.55917   -637.04545    34594.229 
  993100    295.67806   -1563.1891     509.9941    287.35381   -707.24578    34594.229 
  993200    292.89933   -1579.6688    501.79008    250.07187    -678.3944    34594.229 
  993300    302.67328   -1590.9135    487.11538    268.46567   -1238.1158    34594.229 
  993400    304.71955   -1542.2368     522.3679    361.67223   -1269.7692    34594.229 
  993500    306.00348   -1559.6313    514.63351    342.36452   -194.50146    34594.229 
  993600    307.61209   -1598.2662    490.64245    287.03166    475.19644    34594.229 
  993700    306.78575   -1559.3028    518.65819    350.26434   -527.84247    34594.229 
  993800    289.12485   -1565.6669    508.88517    254.05602   -69.524128    34594.229 
  993900    300.29355   -1566.7411    511.70675    306.44021   -60.105899    34594.229 
  994000    310.00426   -1598.0595    513.28201    320.72356    338.59041    34594.229 
  994100     305.0249   -1581.0155    532.95614    334.86625    470.30679    34594.229 
  994200    309.24286   -1547.5933    516.50812    370.96386    155.37528    34594.229 
  994300    298.04349   -1531.5246    493.47867    313.22727    392.82737    34594.229 
  994400     296.1642   -1545.5407    503.77604    300.98815   -408.95784    34594.229 
  994500    302.41539   -1516.6401    501.53132     355.9858     154.3634    34594.229 
  994600    294.61823   -1530.1337     499.9433     305.5533    337.77001    34594.229 
  994700    294.83563   -1563.7072    505.58417     278.6063   -202.95379    34594.229 
  994800    294.95257   -1559.7619    510.99502    288.49268   -354.67452    34594.229 
  994900    293.75732   -1516.2205    505.25588    320.87585   -198.57976    34594.229 
  995000    297.25578   -1534.3598    497.15496    310.49705   -156.39489    34594.229 
  995100    302.74787   -1501.9904    516.28301    386.89452   -443.45534    34594.229 
  995200    305.59117   -1521.5524    518.23097    382.17155   -843.73926    34594.229 
  995300    304.32115   -1506.3683    525.56538      398.932    190.96167    34594.229 
  995400    295.69541   -1515.1973    491.96098    317.39114    542.44967    34594.229 
  995500    292.65412   -1522.5034    516.32766    320.66309    348.79539    34594.229 
  995600    305.66042   -1510.5343    521.02388    396.29653   -212.60687    34594.229 
  995700    302.94859   -1496.5313    506.42455    383.40526    343.48892    34594.229 
  995800    309.82121   -1520.1363     504.3088    388.84363    117.99017    34594.229 
  995900    300.09728   -1485.2485    507.65462    382.99083    241.66286    34594.229 
  996000    310.15086   -1528.9852    509.63528    386.81581   -308.42485    34594.229 
  996100    302.49095    -1510.503     527.8906    388.82471    350.47048    34594.229 
  996200    306.09607    -1512.595    519.67182    394.85883    182.28534    34594.229 
  996300    296.69564   -1510.9961    502.84808     337.0143   -496.44422    34594.229 
  996400    299.92084    -1506.224    502.44403    356.00475   -15.983176    34594.229 
  996500    294.61709   -1521.6499    498.83195    312.92055    273.03732    34594.229 
  996600    288.59288   -1500.8329    491.85381    299.44679    335.66061    34594.229 
  996700    291.20947   -1531.0245    509.17126    298.43579    594.34604    34594.229 
  996800     294.3816   -1517.7742    510.02579    326.92246    156.35045    34594.229 
  996900    301.61062   -1533.8455    499.09634     332.6967    296.26755    34594.229 
  997000    301.93401   -1532.5782    506.35965    342.69348    363.48922    34594.229 
  997100    305.55823   -1520.9966    493.46276    357.80974   -587.61826    34594.229 
  997200    300.90572   -1532.8942    500.76897    332.12477   -588.71104    34594.229 
  997300    302.14391    -1530.349    489.20269    328.71739   -397.24406    34594.229 
  997400    289.42292   -1521.8514    507.37742    297.71517   -394.45099    34594.229 
  997500    302.15514   -1492.6637     514.8917    392.14265   -298.06543    34594.229 
  997600    297.87199   -1501.4558    518.96353    368.00336   -712.69111    34594.229 
  997700    299.60595   -1488.6431    524.43849    394.15241    351.94051    34594.229 
  997800     306.1539   -1476.9785    523.26057     434.3263   -121.99625    34594.229 
  997900    310.20408   -1484.2877    497.08775      419.207   -282.88731    34594.229 
  998000    295.36184   -1455.8699    533.97282      417.218   -125.40035    34594.229 
  998100    299.27834   -1469.9738    495.13512    382.03308   -269.20436    34594.229 
  998200    291.17826   -1517.6617    537.80724    340.29308    188.88712    34594.229 
  998300    313.31683   -1519.8273    508.11876    408.81108   -192.58295    34594.229 
  998400     305.4355   -1526.1618     513.5762    372.20155    40.736988    34594.229 
  998500    294.23915   -1578.1999    509.07717    264.90224    280.33966    34594.229 
  998600    299.36606   -1541.1664    482.37782    298.48089    394.41529    34594.229 
  998700    299.89524   -1526.3296    503.05438     336.3934    213.92628    34594.229 
  998800    300.61611   -1500.7659    516.55121    378.72225    300.36459    34594.229 
  998900    301.64919   -1503.2429    491.15864     355.5365    135.22182    34594.229 
  999000    293.32998   -1525.5551    502.51554    306.86344    227.06857    34594.229 
  999100    304.01157   -1519.3825    490.29396    349.24278    79.209354    34594.229 
  999200    293.88482   -1548.4586     494.0622    278.02216    492.00773    34594.229 
  999300    309.59542   -1506.2239    509.99776    407.42129    519.59079    34594.229 
  999400    300.34379   -1501.4825    521.36997    381.58974    687.56258    34594.229 
  999500    296.31371   -1520.9584    495.12743    317.59967     424.4093    34594.229 
  999600    293.21638   -1511.1714    514.13915    332.35572   -384.48388    34594.229 
  999700    309.41105   -1460.2993    513.97278    456.48507   -234.09225    34594.229 
  999800    308.79385   -1500.4113    503.37594    402.97796    204.44658    34594.229 
  999900    298.87327   -1507.1337    505.26043    353.16192   -251.90565    34594.229 
 1000000    307.07387   -1477.7967    524.29697    438.71553    365.25529    34594.229 
 1000100    296.05969   -1519.3954    494.88989    317.77353   -69.648626    34594.229 
 1000200    299.86041   -1536.2029    476.32625    299.63408    153.50488    34594.229 
 1000300    300.99993   -1461.9408    543.30426     446.0406   -250.45927    34594.229 
 1000400    297.18015   -1470.9207    482.17995    358.61824    71.388049    34594.229 
 1000500    286.36356   -1485.3485    524.82793    337.79801   -227.43515    34594.229 
 1000600    303.59286   -1448.2255    539.62699    467.83451    327.61179    34594.229 
 1000700    297.67019   -1468.4317    525.90716    407.05616   -9.1249802    34594.229 
 1000800    305.74271   -1486.4002    513.77961    413.55936   -305.81821    34594.229 
 1000900    308.39822   -1481.5998    530.94177    447.56151    216.38379    34594.229 
 1001000    305.23896   -1494.6842    517.56267    406.77456     640.8079    34594.229 
 1001100    293.13914   -1451.2026    522.81807     400.6532    186.18886    34594.229 
 1001200    301.47762   -1468.1227    493.52932    392.24954    108.44672    34594.229 
 1001300    299.42463   -1481.6084    497.01888    372.94552   -119.52037    34594.229 
 1001400    298.90582   -1489.6716    486.04399    351.55523    418.96659    34594.229 
 1001500    298.03496   -1476.7474    518.57902    393.06613    -175.1098    34594.229 
 1001600    305.02027   -1473.3438    519.81807    429.37883    167.32322    34594.229 
 1001700    295.29317   -1497.2782    523.19368    364.71925   -367.93131    34594.229 
 1001800    297.37914   -1488.1385     489.7658    349.88846    500.89013    34594.229 
 1001900    304.19171   -1482.2208    532.33879    429.26602    214.81688    34594.229 
 1002000    303.74423   -1474.4223    522.62261    425.31956     150.9157    34594.229 
 1002100    301.35573   -1473.6753    497.50779    390.12276   -351.35248    34594.229 
 1002200    302.93052   -1490.0523      506.234    389.61173     178.7658    34594.229 
 1002300    301.17113   -1500.7503    489.19955    353.90252   -400.26821    34594.229 
 1002400    301.86622   -1451.7191    509.06165    425.94724   -507.86876    34594.229 
 1002500    304.90235   -1464.4639    510.86081    428.76682    -358.2587    34594.229 
 1002600    304.13366   -1488.9387    505.25294    395.19908    147.87956    34594.229 
 1002700    308.71917    -1483.696    494.76499    410.74372    265.46154    34594.229 
 1002800    300.05591   -1506.5832    513.41455    367.22851    410.23608    34594.229 
 1002900    299.65978    -1535.771    482.52622    305.35638    163.72388    34594.229 
 1003000    305.63711   -1497.2888    492.11128    380.52371    750.91626    34594.229 
 1003100    309.09032   -1496.0079    522.34874    427.69823    320.84848    34594.229 
 1003200    301.30154   -1510.6631    512.24429    367.62578    465.17212    34594.229 
 1003300    289.43279   -1486.3833    498.66484    324.51541    653.85471    34594.229 
 1003400     308.0323   -1509.6949    535.31065    422.17629    493.38245    34594.229 
 1003500    303.03243   -1504.3596    506.73083    376.26332    934.39058    34594.229 
 1003600    299.28494   -1475.7149    514.00192    395.18875    600.46346    34594.229 
 1003700    303.44072   -1498.0074     507.3562    385.09195    111.16545    34594.229 
 1003800    293.06266   -1515.6162    520.14762    333.22248    236.02702    34594.229 
 1003900    307.99027    -1546.309    490.15493    340.21596    775.78604    34594.229 
 1004000    294.78789   -1488.5552    511.54465    359.50237    783.05452    34594.229 
 1004100    299.89868   -1533.2593    508.07754    334.50248    1142.0625    34594.229 
 1004200    299.74954   -1536.7451     493.8706    316.13358    513.87284    34594.229 
 1004300    304.32065   -1521.6449    494.23758    352.32534   -39.183502    34594.229 
 1004400    303.82475   -1543.9797    491.68745    325.19208    118.67309    34594.229 
 1004500     309.9752   -1561.2982    470.16497    314.23601    376.10938    34594.229 
 1004600    297.32147   -1568.2832    501.38372    281.10024     256.8078    34594.229 
 1004700    301.69927   -1549.7324    501.13673    319.25216    408.08757    34594.229 
 1004800    302.79958   -1552.6407    510.84007    331.03572    301.98522    34594.229 
 1004900    299.80951   -1510.0052    517.38698    366.66178    200.02859    34594.229 
 1005000      301.753   -1474.3119    508.47758    402.25713      420.774    34594.229 
 1005100     299.3721   -1526.3421    508.40135    339.35611    217.09203    34594.229 
 1005200    303.14539   -1551.9167    496.71973    319.20722   -41.419852    34594.229 
 1005300    302.94733   -1511.9465    496.27731    357.83704    193.53803    34594.229 
 1005400    290.38459   -1460.2169    511.73467    368.06694       300.93    34594.229 
 1005500    296.14746   -1500.2102    505.03737    347.50406   -248.01051    34594.229 
 1005600    306.17789   -1516.6355    507.13459     378.6521   -350.35964    34594.229 
 1005700    291.84654   -1517.8419    493.50128    298.83675   -713.58934    34594.229 
 1005800     305.9898   -1501.1998    507.01181    393.11228   -766.84578    34594.229 
 1005900    305.40173    -1526.366    493.02783    351.29587   -926.81041    34594.229 
 1006000     298.9304   -1484.5839    493.00965    363.72002    -993.1731    34594.229 
 1006100    298.78215   -1546.1343    516.67839    325.16619   -356.74629    34594.229 
 1006200    295.36139   -1573.0484    499.80906    265.87371   -136.84016    34594.229 
 1006270    300.52954   -1528.6237    522.46294    356.38364    757.77322    34594.229 
Loop time of 594.372 on 32 procs for 1000000 steps with 1522 atoms

Performance: 145.363 ns/day, 0.165 hours/ns, 1682.448 timesteps/s
100.0% CPU use with 32 MPI tasks x no OpenMP threads

MPI task timing breakdown:
Section |  min time  |  avg time  |  max time  |%varavg| %total
---------------------------------------------------------------
Pair    | 269.7      | 293.26     | 323.43     |  74.5 | 49.34
Bond    | 1.4844     | 1.6382     | 1.9713     |   9.5 |  0.28
Neigh   | 38.374     | 38.434     | 38.49      |   0.7 |  6.47
Comm    | 218.18     | 248.22     | 271.89     |  81.1 | 41.76
Output  | 0.39329    | 0.41091    | 0.81846    |  11.4 |  0.07
Modify  | 9.3866     | 9.5799     | 9.7829     |   3.2 |  1.61
Other   |            | 2.835      |            |       |  0.48

Nlocal:        47.5625 ave          67 max           8 min
Histogram: 1 0 0 2 3 6 2 10 4 4
Nghost:        2138.94 ave        2217 max        2075 min
Histogram: 6 4 1 3 1 6 4 3 3 1
Neighs:        5667.44 ave        9123 max         804 min
Histogram: 1 0 3 1 7 3 8 4 3 2

Total # of neighbors = 181358
Ave neighs/atom = 119.15769
Ave special neighs/atom = 2.0459921
Neighbor list builds = 49881
Dangerous builds = 0
The system volume is 34594.2291930672
Lattice vectors
32.5837615921026 0 0
0 32.5837615921026 0
0 0 32.5837615921026
Total wall time: 0:09:59
