LAMMPS data file
 1508 atoms
 1007 bonds
 509 angles
 8 dihedrals
 3 impropers
 5 atom types
 4 bond types
 3 angle types
 1 dihedral types
 1 improper types
 0 15 xlo xhi
 0 15 ylo yhi
 0 15 zlo zhi
 0 0 0 xy xz yz

# Atom types
#
# 1 O_2
# 2 N_2
# 3 C_2
# 4 H__HB
# 5 O_3

# Bond Coeffs
#
# 1 O_2*C_2
# 2 N_2*C_2
# 3 N_2*H__HB
# 4 O_3*H__HB

# Angle Coeffs
#
# 1 N_2
# 2 C_2
# 3 O_3

# Dihedral Coeffs
#
# 1 C1

# Inversion Coeffs
#
# 1 1

 Masses

 1 16
 2 14.01
 3 12.01
 4 1.01
 5 16

 Atoms # full

1 1 1 0 9.82717254707224 12.2258271114513 5.39140880666515
2 1 2 0 9.73638626955309 12.3672564063384 7.58373882205106
3 1 3 0 9.75927316661685 11.592199015707 6.46746233247937
4 1 2 0 9.71632696409743 10.2399192954268 6.33088912204585
5 1 4 0 9.94082915468088 13.3070961662265 7.4524814319582
6 1 4 0 9.57150203138338 9.91706165007587 5.42686048881414
7 1 4 0 9.84503837831194 9.27510406054217 7.27453186926821
8 1 4 0 9.47166054561945 11.9953765183191 8.85783397547351
9 2 4 0 11.2376744944789 9.51480553642847 14.6998974471353
10 2 5 0 12.1976744944789 9.51480553642847 14.6998974471353
11 2 4 0 12.4376744944789 8.58480553642847 14.6998974471353
12 3 4 0 8.7315764422249 12.2677860401478 2.41040827590041
13 3 5 0 9.69157644222491 12.2677860401478 2.41040827590041
14 3 4 0 9.93157644222491 11.3377860401478 2.41040827590041
15 4 4 0 9.35234505261294 14.8033928793762 6.45945057738572
16 4 5 0 10.3123450526129 14.8033928793762 6.45945057738572
17 4 4 0 10.5523450526129 13.8733928793762 6.45945057738572
18 5 4 0 2.08524937435985 3.93906263559125 0.136536540230736
19 5 5 0 3.04524937435985 3.93906263559125 0.136536540230736
20 5 4 0 3.28524937435985 3.00906263559125 0.136536540230736
21 6 4 0 9.65562594632618 8.13388000749052 13.4559118829202
22 6 5 0 10.6156259463262 8.13388000749052 13.4559118829202
23 6 4 0 10.8556259463262 7.20388000749052 13.4559118829202
24 7 4 0 1.80325021661818 9.48330479365774 2.31388749671169
25 7 5 0 2.76325021661818 9.48330479365774 2.31388749671169
26 7 4 0 3.00325021661818 8.55330479365774 2.31388749671169
27 8 4 0 8.81562422306277 9.86878852400929 2.91523888008669
28 8 5 0 9.77562422306277 9.86878852400929 2.91523888008669
29 8 4 0 10.0156242230628 8.93878852400929 2.91523888008669
30 9 4 0 3.58983740952797 5.78968154773116 7.48851960059255
31 9 5 0 4.54983740952797 5.78968154773116 7.48851960059255
32 9 4 0 4.78983740952797 4.85968154773116 7.48851960059255
33 10 4 0 4.8213471290376 0.500861292649061 4.95451241265982
34 10 5 0 5.7813471290376 0.500861292649061 4.95451241265982
35 10 4 0 6.0213471290376 -0.42913870735094 4.95451241265982
36 11 4 0 4.34996724754572 4.15356754482724 0.682766087120399
37 11 5 0 5.30996724754572 4.15356754482724 0.682766087120399
38 11 4 0 5.54996724754572 3.22356754482724 0.682766087120399
39 12 4 0 1.94042388277128 9.65569537523203 14.3483531568199
40 12 5 0 2.90042388277128 9.65569537523203 14.3483531568199
41 12 4 0 3.14042388277128 8.72569537523203 14.3483531568199
42 13 4 0 9.18050712134689 11.2249102482479 3.65655322093517
43 13 5 0 10.1405071213469 11.2249102482479 3.65655322093517
44 13 4 0 10.3805071213469 10.2949102482479 3.65655322093517
45 14 4 0 9.37935828158632 9.86374778015539 11.8979864800349
46 14 5 0 10.3393582815863 9.86374778015539 11.8979864800349
47 14 4 0 10.5793582815863 8.93374778015539 11.8979864800349
48 15 4 0 0.300806736778468 6.58380393561907 11.1982762429398
49 15 5 0 1.26080673677847 6.58380393561907 11.1982762429398
50 15 4 0 1.50080673677847 5.65380393561907 11.1982762429398
51 16 4 0 11.6505749027431 12.7573032529932 14.3564545630943
52 16 5 0 12.6105749027431 12.7573032529932 14.3564545630943
53 16 4 0 12.8505749027431 11.8273032529932 14.3564545630943
54 17 4 0 2.74290404791944 13.4602943031956 5.94278244883753
55 17 5 0 3.70290404791944 13.4602943031956 5.94278244883753
56 17 4 0 3.94290404791944 12.5302943031956 5.94278244883753
57 18 4 0 2.92132405025885 14.3318176087365 12.2128110390622
58 18 5 0 3.88132405025885 14.3318176087365 12.2128110390622
59 18 4 0 4.12132405025885 13.4018176087365 12.2128110390622
60 19 4 0 13.4969472004753 3.92156351980753 8.93496690667234
61 19 5 0 14.4569472004753 3.92156351980753 8.93496690667234
62 19 4 0 14.6969472004753 2.99156351980753 8.93496690667234
63 20 4 0 11.4313070119545 15.2397266895883 10.3347278991714
64 20 5 0 12.3913070119545 15.2397266895883 10.3347278991714
65 20 4 0 12.6313070119545 14.3097266895883 10.3347278991714
66 21 4 0 13.5881255361903 8.86125182773918 11.2258575798478
67 21 5 0 14.5481255361903 8.86125182773918 11.2258575798478
68 21 4 0 14.7881255361903 7.93125182773918 11.2258575798478
69 22 4 0 12.2103493956104 10.6555144900363 9.05205080634914
70 22 5 0 13.1703493956104 10.6555144900363 9.05205080634914
71 22 4 0 13.4103493956104 9.72551449003629 9.05205080634914
72 23 4 0 2.34256484356709 1.84986731893383 14.6880913479254
73 23 5 0 3.30256484356709 1.84986731893383 14.6880913479254
74 23 4 0 3.54256484356709 0.91986731893383 14.6880913479254
75 24 4 0 10.0806440720055 9.33628812240437 11.8630352220498
76 24 5 0 11.0406440720055 9.33628812240437 11.8630352220498
77 24 4 0 11.2806440720055 8.40628812240437 11.8630352220498
78 25 4 0 1.93643594088033 10.5701513580885 1.4224844193086
79 25 5 0 2.89643594088033 10.5701513580885 1.4224844193086
80 25 4 0 3.13643594088033 9.64015135808848 1.4224844193086
81 26 4 0 3.27795167497359 12.7934501196165 1.55923119862564
82 26 5 0 4.23795167497359 12.7934501196165 1.55923119862564
83 26 4 0 4.47795167497359 11.8634501196165 1.55923119862564
84 27 4 0 9.58343096586876 0.899035084703937 14.6925836673472
85 27 5 0 10.5434309658688 0.899035084703937 14.6925836673472
86 27 4 0 10.7834309658688 -0.0309649152960629 14.6925836673472
87 28 4 0 6.55354628616013 4.37021868227981 3.24102050741203
88 28 5 0 7.51354628616013 4.37021868227981 3.24102050741203
89 28 4 0 7.75354628616013 3.44021868227981 3.24102050741203
90 29 4 0 12.6805389350932 12.8817355497181 13.1020174815785
91 29 5 0 13.6405389350932 12.8817355497181 13.1020174815785
92 29 4 0 13.8805389350932 11.9517355497181 13.1020174815785
93 30 4 0 13.0604685195442 6.16769225959666 8.02484928164631
94 30 5 0 14.0204685195442 6.16769225959666 8.02484928164631
95 30 4 0 14.2604685195442 5.23769225959666 8.02484928164631
96 31 4 0 4.61603335730732 12.2357998873945 12.081305795582
97 31 5 0 5.57603335730732 12.2357998873945 12.081305795582
98 31 4 0 5.81603335730732 11.3057998873945 12.081305795582
99 32 4 0 5.32898537392728 3.60363472643308 10.3516751085408
100 32 5 0 6.28898537392728 3.60363472643308 10.3516751085408
101 32 4 0 6.52898537392728 2.67363472643308 10.3516751085408
102 33 4 0 4.07011936113238 5.34365801996551 6.70556324883364
103 33 5 0 5.03011936113238 5.34365801996551 6.70556324883364
104 33 4 0 5.27011936113238 4.41365801996551 6.70556324883364
105 34 4 0 7.5352055187989 2.74981265230104 7.66112806973979
106 34 5 0 8.4952055187989 2.74981265230104 7.66112806973979
107 34 4 0 8.7352055187989 1.81981265230104 7.66112806973979
108 35 4 0 6.24229951805435 8.72883459477685 10.4072746890597
109 35 5 0 7.20229951805435 8.72883459477685 10.4072746890597
110 35 4 0 7.44229951805435 7.79883459477685 10.4072746890597
111 36 4 0 13.6035799006652 2.23723260843195 5.74544932460412
112 36 5 0 14.5635799006652 2.23723260843195 5.74544932460412
113 36 4 0 14.8035799006652 1.30723260843195 5.74544932460412
114 37 4 0 3.43388945024461 5.69271509576589 7.92598394444212
115 37 5 0 4.39388945024461 5.69271509576589 7.92598394444212
116 37 4 0 4.63388945024461 4.76271509576589 7.92598394444212
117 38 4 0 4.94649812855758 10.6323701380193 1.97300981730223
118 38 5 0 5.90649812855758 10.6323701380193 1.97300981730223
119 38 4 0 6.14649812855758 9.70237013801932 1.97300981730223
120 39 4 0 9.05104129968211 8.86271350941621 4.41036545787938
121 39 5 0 10.0110412996821 8.86271350941621 4.41036545787938
122 39 4 0 10.2510412996821 7.93271350941621 4.41036545787938
123 40 4 0 0.700178257394582 15.2112509547174 9.75910285720602
124 40 5 0 1.66017825739458 15.2112509547174 9.75910285720602
125 40 4 0 1.90017825739458 14.2812509547174 9.75910285720602
126 41 4 0 10.9827168860659 4.11363909527659 10.0175601546653
127 41 5 0 11.9427168860659 4.11363909527659 10.0175601546653
128 41 4 0 12.1827168860659 3.18363909527659 10.0175601546653
129 42 4 0 9.65263758131303 1.19287106133066 7.57668976206332
130 42 5 0 10.612637581313 1.19287106133066 7.57668976206332
131 42 4 0 10.852637581313 0.262871061330661 7.57668976206332
132 43 4 0 3.82024586593732 7.13654255768284 7.66123611247167
133 43 5 0 4.78024586593732 7.13654255768284 7.66123611247167
134 43 4 0 5.02024586593732 6.20654255768284 7.66123611247167
135 44 4 0 2.22154098490253 2.2991668332275 0.140924190636724
136 44 5 0 3.18154098490253 2.2991668332275 0.140924190636724
137 44 4 0 3.42154098490253 1.3691668332275 0.140924190636724
138 45 4 0 5.02518849374726 8.65137490950525 10.8441383123863
139 45 5 0 5.98518849374726 8.65137490950525 10.8441383123863
140 45 4 0 6.22518849374726 7.72137490950525 10.8441383123863
141 46 4 0 3.69053393762559 12.1132316246536 11.1218538915273
142 46 5 0 4.65053393762559 12.1132316246536 11.1218538915273
143 46 4 0 4.89053393762559 11.1832316246536 11.1218538915273
144 47 4 0 13.8185731081478 9.45806181215681 11.5086287003942
145 47 5 0 14.7785731081478 9.45806181215681 11.5086287003942
146 47 4 0 15.0185731081478 8.52806181215681 11.5086287003942
147 48 4 0 3.87588383557275 2.45442485710606 1.07625936158001
148 48 5 0 4.83588383557275 2.45442485710606 1.07625936158001
149 48 4 0 5.07588383557275 1.52442485710606 1.07625936158001
150 49 4 0 6.56828190593049 1.62392477895133 8.66552781779319
151 49 5 0 7.52828190593049 1.62392477895133 8.66552781779319
152 49 4 0 7.76828190593049 0.693924778951332 8.66552781779319
153 50 4 0 10.0613029072713 13.8057273863256 5.6602439575363
154 50 5 0 11.0213029072713 13.8057273863256 5.6602439575363
155 50 4 0 11.2613029072713 12.8757273863256 5.6602439575363
156 51 4 0 13.5023335930612 9.55747003475204 4.28453226923011
157 51 5 0 14.4623335930612 9.55747003475204 4.28453226923011
158 51 4 0 14.7023335930612 8.62747003475204 4.28453226923011
159 52 4 0 4.58853789299727 0.909212080705911 12.5556992541533
160 52 5 0 5.54853789299727 0.909212080705911 12.5556992541533
161 52 4 0 5.78853789299727 -0.0207879192940891 12.5556992541533
162 53 4 0 2.19414316277951 3.17010592710227 14.304456616519
163 53 5 0 3.15414316277951 3.17010592710227 14.304456616519
164 53 4 0 3.39414316277951 2.24010592710227 14.304456616519
165 54 4 0 5.63210186010227 13.9022568547539 0.224586145486683
166 54 5 0 6.59210186010227 13.9022568547539 0.224586145486683
167 54 4 0 6.83210186010227 12.9722568547539 0.224586145486683
168 55 4 0 14.2236715256888 3.9840131652914 11.9015954551287
169 55 5 0 15.1836715256888 3.9840131652914 11.9015954551287
170 55 4 0 15.4236715256888 3.0540131652914 11.9015954551287
171 56 4 0 9.90133836792782 2.04991631600074 14.9066313507501
172 56 5 0 10.8613383679278 2.04991631600074 14.9066313507501
173 56 4 0 11.1013383679278 1.11991631600074 14.9066313507501
174 57 4 0 6.74779773733579 0.418797780703753 4.3240895785857
175 57 5 0 7.70779773733579 0.418797780703753 4.3240895785857
176 57 4 0 7.94779773733579 -0.511202219296247 4.3240895785857
177 58 4 0 0.551379544632509 10.1202895054035 5.84094286663458
178 58 5 0 1.51137954463251 10.1202895054035 5.84094286663458
179 58 4 0 1.75137954463251 9.19028950540349 5.84094286663458
180 59 4 0 8.03241700443439 4.03817142517306 8.12826018431224
181 59 5 0 8.99241700443439 4.03817142517306 8.12826018431224
182 59 4 0 9.23241700443439 3.10817142517306 8.12826018431224
183 60 4 0 12.2396334672533 5.68067339522764 8.73882712447084
184 60 5 0 13.1996334672533 5.68067339522764 8.73882712447084
185 60 4 0 13.4396334672533 4.75067339522764 8.73882712447084
186 61 4 0 14.127828601487 4.22959968023002 11.5430964902043
187 61 5 0 15.087828601487 4.22959968023002 11.5430964902043
188 61 4 0 15.327828601487 3.29959968023002 11.5430964902043
189 62 4 0 1.4079324463103 4.50902186025865 11.2692319450434
190 62 5 0 2.3679324463103 4.50902186025865 11.2692319450434
191 62 4 0 2.6079324463103 3.57902186025865 11.2692319450434
192 63 4 0 12.106449353015 10.9471301563922 10.7942457427271
193 63 5 0 13.0664493530151 10.9471301563922 10.7942457427271
194 63 4 0 13.3064493530151 10.0171301563922 10.7942457427271
195 64 4 0 12.2341272029746 10.2881669070944 6.27658875309862
196 64 5 0 13.1941272029746 10.2881669070944 6.27658875309862
197 64 4 0 13.4341272029746 9.35816690709442 6.27658875309862
198 65 4 0 1.09838396703824 6.91777429817244 5.73860640171915
199 65 5 0 2.05838396703824 6.91777429817244 5.73860640171915
200 65 4 0 2.29838396703824 5.98777429817244 5.73860640171915
201 66 4 0 10.4919081022684 10.4046967385244 3.9364862954244
202 66 5 0 11.4519081022684 10.4046967385244 3.9364862954244
203 66 4 0 11.6919081022684 9.47469673852436 3.9364862954244
204 67 4 0 10.1790632160567 12.3679687261488 4.78899444337003
205 67 5 0 11.1390632160567 12.3679687261488 4.78899444337003
206 67 4 0 11.3790632160567 11.4379687261488 4.78899444337003
207 68 4 0 10.3670492819231 9.59724806755781 3.7644311087206
208 68 5 0 11.3270492819231 9.59724806755781 3.7644311087206
209 68 4 0 11.5670492819231 8.66724806755781 3.7644311087206
210 69 4 0 8.84998810172081 12.4759775497392 10.9814124321565
211 69 5 0 9.80998810172081 12.4759775497392 10.9814124321565
212 69 4 0 10.0499881017208 11.5459775497392 10.9814124321565
213 70 4 0 9.69038505965844 1.6662139775604 8.5840266617015
214 70 5 0 10.6503850596584 1.6662139775604 8.5840266617015
215 70 4 0 10.8903850596584 0.736213977560401 8.5840266617015
216 71 4 0 4.22763952796347 3.01030002226122 8.62286904710345
217 71 5 0 5.18763952796347 3.01030002226122 8.62286904710345
218 71 4 0 5.42763952796347 2.08030002226122 8.62286904710345
219 72 4 0 6.87616958093829 11.4273613660503 12.1763573912904
220 72 5 0 7.83616958093829 11.4273613660503 12.1763573912904
221 72 4 0 8.07616958093829 10.4973613660503 12.1763573912904
222 73 4 0 2.42961325493641 8.22365934419446 13.3152089291252
223 73 5 0 3.38961325493641 8.22365934419446 13.3152089291252
224 73 4 0 3.62961325493641 7.29365934419446 13.3152089291252
225 74 4 0 8.03623483560048 4.44083351682872 9.60910762776621
226 74 5 0 8.99623483560048 4.44083351682872 9.60910762776621
227 74 4 0 9.23623483560048 3.51083351682872 9.60910762776621
228 75 4 0 0.998891153577715 3.94792496500537 3.18905671010725
229 75 5 0 1.95889115357772 3.94792496500537 3.18905671010725
230 75 4 0 2.19889115357772 3.01792496500537 3.18905671010725
231 76 4 0 13.8026980489679 13.533579346668 9.87087528104894
232 76 5 0 14.7626980489679 13.533579346668 9.87087528104894
233 76 4 0 15.0026980489679 12.603579346668 9.87087528104894
234 77 4 0 8.70281194380484 7.82312233740464 3.5717816487886
235 77 5 0 9.66281194380485 7.82312233740464 3.5717816487886
236 77 4 0 9.90281194380485 6.89312233740464 3.5717816487886
237 78 4 0 7.69384316445328 11.8363901522849 6.32515087374486
238 78 5 0 8.65384316445328 11.8363901522849 6.32515087374486
239 78 4 0 8.89384316445328 10.9063901522849 6.32515087374486
240 79 4 0 1.60888924190775 2.47313303099014 3.14226437942125
241 79 5 0 2.56888924190775 2.47313303099014 3.14226437942125
242 79 4 0 2.80888924190775 1.54313303099014 3.14226437942125
243 80 4 0 3.51257492249832 7.42285387631506 8.1733647279907
244 80 5 0 4.47257492249832 7.42285387631506 8.1733647279907
245 80 4 0 4.71257492249832 6.49285387631506 8.1733647279907
246 81 4 0 1.07733533179387 7.55668282433413 10.3586247994099
247 81 5 0 2.03733533179387 7.55668282433413 10.3586247994099
248 81 4 0 2.27733533179387 6.62668282433413 10.3586247994099
249 82 4 0 6.75765631531365 9.96724149602465 0.459318329812959
250 82 5 0 7.71765631531365 9.96724149602465 0.459318329812959
251 82 4 0 7.95765631531365 9.03724149602465 0.459318329812959
252 83 4 0 5.79944105280563 10.0687100288365 14.940118168015
253 83 5 0 6.75944105280563 10.0687100288365 14.940118168015
254 83 4 0 6.99944105280563 9.1387100288365 14.940118168015
255 84 4 0 2.15346368771978 6.98802377254702 0.108921228675172
256 84 5 0 3.11346368771978 6.98802377254702 0.108921228675172
257 84 4 0 3.35346368771978 6.05802377254702 0.108921228675172
258 85 4 0 3.22705765298568 2.83746183658019 10.4449155880138
259 85 5 0 4.18705765298568 2.83746183658019 10.4449155880138
260 85 4 0 4.42705765298568 1.90746183658019 10.4449155880138
261 86 4 0 13.679711668957 2.0152940686699 9.04018205939792
262 86 5 0 14.639711668957 2.0152940686699 9.04018205939792
263 86 4 0 14.879711668957 1.0852940686699 9.04018205939792
264 87 4 0 6.8790932865534 0.667614066451788 5.78592522069812
265 87 5 0 7.8390932865534 0.667614066451788 5.78592522069812
266 87 4 0 8.0790932865534 -0.262385933548212 5.78592522069812
267 88 4 0 3.90304965709336 13.8523893015832 13.6400201695506
268 88 5 0 4.86304965709336 13.8523893015832 13.6400201695506
269 88 4 0 5.10304965709336 12.9223893015832 13.6400201695506
270 89 4 0 8.57506849846803 1.80460980203003 5.47938260715455
271 89 5 0 9.53506849846803 1.80460980203003 5.47938260715455
272 89 4 0 9.77506849846803 0.874609802030027 5.47938260715455
273 90 4 0 10.0006623000093 9.2148412500415 8.18594654090703
274 90 5 0 10.9606623000093 9.2148412500415 8.18594654090703
275 90 4 0 11.2006623000093 8.2848412500415 8.18594654090703
276 91 4 0 3.14952402885072 12.8649054564908 3.12341724755242
277 91 5 0 4.10952402885072 12.8649054564908 3.12341724755242
278 91 4 0 4.34952402885072 11.9349054564908 3.12341724755242
279 92 4 0 3.71994865869172 13.9234283791762 4.68405527528375
280 92 5 0 4.67994865869172 13.9234283791762 4.68405527528375
281 92 4 0 4.91994865869172 12.9934283791762 4.68405527528375
282 93 4 0 5.75588204126805 3.27259647933766 0.120097532635555
283 93 5 0 6.71588204126805 3.27259647933766 0.120097532635555
284 93 4 0 6.95588204126805 2.34259647933766 0.120097532635555
285 94 4 0 12.0887658877484 5.29592276009731 14.5064580696635
286 94 5 0 13.0487658877485 5.29592276009731 14.5064580696635
287 94 4 0 13.2887658877485 4.36592276009731 14.5064580696635
288 95 4 0 11.3746806133725 13.8710916430596 5.38639535545371
289 95 5 0 12.3346806133725 13.8710916430596 5.38639535545371
290 95 4 0 12.5746806133725 12.9410916430596 5.38639535545371
291 96 4 0 12.5716198123712 1.91881422809325 1.44074547104537
292 96 5 0 13.5316198123712 1.91881422809325 1.44074547104537
293 96 4 0 13.7716198123712 0.988814228093251 1.44074547104537
294 97 4 0 11.7865492163412 12.9091759973112 14.9815110792406
295 97 5 0 12.7465492163412 12.9091759973112 14.9815110792406
296 97 4 0 12.9865492163412 11.9791759973113 14.9815110792406
297 98 4 0 8.47964409666136 13.4378102006763 13.5448616556823
298 98 5 0 9.43964409666136 13.4378102006763 13.5448616556823
299 98 4 0 9.67964409666136 12.5078102006763 13.5448616556823
300 99 4 0 7.66523577782325 12.3663188637607 14.8126956168562
301 99 5 0 8.62523577782325 12.3663188637607 14.8126956168562
302 99 4 0 8.86523577782325 11.4363188637607 14.8126956168562
303 100 4 0 11.2724572727177 1.37155095854774 0.581960587296635
304 100 5 0 12.2324572727177 1.37155095854774 0.581960587296635
305 100 4 0 12.4724572727177 0.441550958547741 0.581960587296635
306 101 4 0 1.62524546423927 9.09850362962112 0.947783715091646
307 101 5 0 2.58524546423927 9.09850362962112 0.947783715091646
308 101 4 0 2.82524546423927 8.16850362962112 0.947783715091646
309 102 4 0 9.21925281451084 6.99884655227885 13.1546447135042
310 102 5 0 10.1792528145108 6.99884655227885 13.1546447135042
311 102 4 0 10.4192528145108 6.06884655227885 13.1546447135042
312 103 4 0 5.2467791321408 1.40148829127662 7.30894431355409
313 103 5 0 6.2067791321408 1.40148829127662 7.30894431355409
314 103 4 0 6.4467791321408 0.471488291276619 7.30894431355409
315 104 4 0 6.16612056314014 4.15485614369623 3.95340852322988
316 104 5 0 7.12612056314014 4.15485614369623 3.95340852322988
317 104 4 0 7.36612056314014 3.22485614369623 3.95340852322988
318 105 4 0 10.4609781810734 2.86400082445703 0.416511059738696
319 105 5 0 11.4209781810734 2.86400082445703 0.416511059738696
320 105 4 0 11.6609781810734 1.93400082445703 0.416511059738696
321 106 4 0 5.9268325140886 3.0889576665964 4.61561572621576
322 106 5 0 6.8868325140886 3.0889576665964 4.61561572621576
323 106 4 0 7.1268325140886 2.1589576665964 4.61561572621576
324 107 4 0 14.1756980172079 4.35333338723518 11.996734093409
325 107 5 0 15.1356980172079 4.35333338723518 11.996734093409
326 107 4 0 15.3756980172079 3.42333338723518 11.996734093409
327 108 4 0 5.92321929565631 10.9230424386356 14.2275070259348
328 108 5 0 6.88321929565631 10.9230424386356 14.2275070259348
329 108 4 0 7.12321929565631 9.9930424386356 14.2275070259348
330 109 4 0 13.1177706462052 12.4548859013617 0.996593587333336
331 109 5 0 14.0777706462052 12.4548859013617 0.996593587333336
332 109 4 0 14.3177706462052 11.5248859013617 0.996593587333336
333 110 4 0 -0.165385909639299 8.87698418501765 9.21518252114765
334 110 5 0 0.794614090360701 8.87698418501765 9.21518252114765
335 110 4 0 1.0346140903607 7.94698418501765 9.21518252114765
336 111 4 0 2.83114841018803 6.24603502376936 10.6375199533068
337 111 5 0 3.79114841018803 6.24603502376936 10.6375199533068
338 111 4 0 4.03114841018803 5.31603502376936 10.6375199533068
339 112 4 0 10.9258499338478 3.81940641365014 14.0588545287028
340 112 5 0 11.8858499338478 3.81940641365014 14.0588545287028
341 112 4 0 12.1258499338478 2.88940641365014 14.0588545287028
342 113 4 0 9.84252363254316 10.9077107782383 6.10920934472233
343 113 5 0 10.8025236325432 10.9077107782383 6.10920934472233
344 113 4 0 11.0425236325432 9.97771077823825 6.10920934472233
345 114 4 0 9.8890302451048 12.5982087377366 5.43109901016578
346 114 5 0 10.8490302451048 12.5982087377366 5.43109901016578
347 114 4 0 11.0890302451048 11.6682087377366 5.43109901016578
348 115 4 0 4.29131435972638 15.0291596124321 10.4088842973579
349 115 5 0 5.25131435972638 15.0291596124321 10.4088842973579
350 115 4 0 5.49131435972638 14.0991596124321 10.4088842973579
351 116 4 0 10.0704962450266 9.76428568287753 1.37066929950379
352 116 5 0 11.0304962450266 9.76428568287753 1.37066929950379
353 116 4 0 11.2704962450266 8.83428568287753 1.37066929950379
354 117 4 0 6.95832029610872 14.7721974648908 3.91943749389611
355 117 5 0 7.91832029610872 14.7721974648908 3.91943749389611
356 117 4 0 8.15832029610872 13.8421974648908 3.91943749389611
357 118 4 0 11.2234789801016 0.705430685020983 14.5925871049985
358 118 5 0 12.1834789801016 0.705430685020983 14.5925871049985
359 118 4 0 12.4234789801016 -0.224569314979017 14.5925871049985
360 119 4 0 9.88022002318874 10.0683623195533 12.4620056070853
361 119 5 0 10.8402200231887 10.0683623195533 12.4620056070853
362 119 4 0 11.0802200231887 9.13836231955327 12.4620056070853
363 120 4 0 12.2853607444279 14.1401808852702 9.67602058430202
364 120 5 0 13.2453607444279 14.1401808852702 9.67602058430202
365 120 4 0 13.4853607444279 13.2101808852702 9.67602058430202
366 121 4 0 7.10404221477918 12.3020214975718 2.11198916542344
367 121 5 0 8.06404221477918 12.3020214975718 2.11198916542344
368 121 4 0 8.30404221477918 11.3720214975718 2.11198916542344
369 122 4 0 0.134952478548512 15.1195200036187 13.8758877874352
370 122 5 0 1.09495247854851 15.1195200036187 13.8758877874352
371 122 4 0 1.33495247854851 14.1895200036187 13.8758877874352
372 123 4 0 10.7490920768771 6.62029928685166 3.25747944647446
373 123 5 0 11.7090920768771 6.62029928685166 3.25747944647446
374 123 4 0 11.9490920768771 5.69029928685166 3.25747944647446
375 124 4 0 12.5487906094361 4.70043542253785 0.765583676984534
376 124 5 0 13.5087906094361 4.70043542253785 0.765583676984534
377 124 4 0 13.7487906094361 3.77043542253785 0.765583676984534
378 125 4 0 11.6505312714446 12.2964880514797 9.8818044969812
379 125 5 0 12.6105312714446 12.2964880514797 9.8818044969812
380 125 4 0 12.8505312714446 11.3664880514797 9.8818044969812
381 126 4 0 1.29327115064487 8.50533680798486 6.5863589476794
382 126 5 0 2.25327115064487 8.50533680798486 6.5863589476794
383 126 4 0 2.49327115064487 7.57533680798486 6.5863589476794
384 127 4 0 5.05905481215566 12.6400205275882 14.1233996918891
385 127 5 0 6.01905481215566 12.6400205275882 14.1233996918891
386 127 4 0 6.25905481215566 11.7100205275882 14.1233996918891
387 128 4 0 5.12223936893977 13.6984120779112 12.5400947558228
388 128 5 0 6.08223936893977 13.6984120779112 12.5400947558228
389 128 4 0 6.32223936893977 12.7684120779112 12.5400947558228
390 129 4 0 1.43249301516451 11.3553023191076 14.9770580849145
391 129 5 0 2.39249301516451 11.3553023191076 14.9770580849145
392 129 4 0 2.63249301516451 10.4253023191076 14.9770580849145
393 130 4 0 10.3311566279456 0.637829399611801 9.62781938142143
394 130 5 0 11.2911566279456 0.637829399611801 9.62781938142143
395 130 4 0 11.5311566279456 -0.292170600388199 9.62781938142143
396 131 4 0 0.836282225064933 1.22532581485808 8.47607359173708
397 131 5 0 1.79628222506493 1.22532581485808 8.47607359173708
398 131 4 0 2.03628222506493 0.295325814858079 8.47607359173708
399 132 4 0 9.28275383004919 13.0867484914511 5.00282178400084
400 132 5 0 10.2427538300492 13.0867484914511 5.00282178400084
401 132 4 0 10.4827538300492 12.1567484914511 5.00282178400084
402 133 4 0 6.39673728539608 4.70129485399462 12.3005030618515
403 133 5 0 7.35673728539608 4.70129485399462 12.3005030618515
404 133 4 0 7.59673728539608 3.77129485399462 12.3005030618515
405 134 4 0 12.3937653579935 5.32965720322914 2.67894954769872
406 134 5 0 13.3537653579935 5.32965720322914 2.67894954769872
407 134 4 0 13.5937653579935 4.39965720322914 2.67894954769872
408 135 4 0 10.7566819111537 14.6921600440424 12.7972458349541
409 135 5 0 11.7166819111537 14.6921600440424 12.7972458349541
410 135 4 0 11.9566819111537 13.7621600440424 12.7972458349541
411 136 4 0 3.76482775012963 8.80671698990278 7.29881640756503
412 136 5 0 4.72482775012963 8.80671698990278 7.29881640756503
413 136 4 0 4.96482775012963 7.87671698990278 7.29881640756503
414 137 4 0 0.197440715711564 15.2358003756404 6.92449437221512
415 137 5 0 1.15744071571156 15.2358003756404 6.92449437221512
416 137 4 0 1.39744071571156 14.3058003756404 6.92449437221512
417 138 4 0 6.67809079910629 12.1842050335277 1.18992453091778
418 138 5 0 7.63809079910629 12.1842050335277 1.18992453091778
419 138 4 0 7.87809079910629 11.2542050335277 1.18992453091778
420 139 4 0 13.0264539986104 3.91565091832541 1.21845581335947
421 139 5 0 13.9864539986104 3.91565091832541 1.21845581335947
422 139 4 0 14.2264539986104 2.98565091832541 1.21845581335947
423 140 4 0 4.98332527742721 12.3801818889938 3.03097918163985
424 140 5 0 5.94332527742721 12.3801818889938 3.03097918163985
425 140 4 0 6.18332527742721 11.4501818889938 3.03097918163985
426 141 4 0 9.99892810519785 12.7581695191935 7.35206285957247
427 141 5 0 10.9589281051978 12.7581695191935 7.35206285957247
428 141 4 0 11.1989281051978 11.8281695191935 7.35206285957247
429 142 4 0 3.6540810721647 6.30274928914383 13.4931870026048
430 142 5 0 4.6140810721647 6.30274928914383 13.4931870026048
431 142 4 0 4.8540810721647 5.37274928914383 13.4931870026048
432 143 4 0 5.266442231806 6.57775046577677 12.7045842481311
433 143 5 0 6.226442231806 6.57775046577677 12.7045842481311
434 143 4 0 6.466442231806 5.64775046577677 12.7045842481311
435 144 4 0 9.01487042589113 15.2713002466504 8.77427028492093
436 144 5 0 9.97487042589113 15.2713002466504 8.77427028492093
437 144 4 0 10.2148704258911 14.3413002466504 8.77427028492093
438 145 4 0 1.50352891461924 14.102629026575 7.89790449198335
439 145 5 0 2.46352891461924 14.102629026575 7.89790449198335
440 145 4 0 2.70352891461924 13.172629026575 7.89790449198335
441 146 4 0 -0.149179758299142 1.14388140774332 6.36511550517753
442 146 5 0 0.810820241700858 1.14388140774332 6.36511550517753
443 146 4 0 1.05082024170086 0.21388140774332 6.36511550517753
444 147 4 0 8.67374140813015 7.8264112530183 6.11674348125234
445 147 5 0 9.63374140813015 7.8264112530183 6.11674348125234
446 147 4 0 9.87374140813015 6.8964112530183 6.11674348125234
447 148 4 0 3.83376695492305 8.65047384792939 14.0045770152938
448 148 5 0 4.79376695492305 8.65047384792939 14.0045770152938
449 148 4 0 5.03376695492305 7.72047384792939 14.0045770152938
450 149 4 0 14.1953124529403 14.3451480443496 12.2204248455819
451 149 5 0 15.1553124529403 14.3451480443496 12.2204248455819
452 149 4 0 15.3953124529403 13.4151480443496 12.2204248455819
453 150 4 0 10.7534609832522 5.30015095527284 3.33951370907016
454 150 5 0 11.7134609832522 5.30015095527284 3.33951370907016
455 150 4 0 11.9534609832522 4.37015095527284 3.33951370907016
456 151 4 0 9.35744931732304 8.55911405798048 7.82510122284293
457 151 5 0 10.317449317323 8.55911405798048 7.82510122284293
458 151 4 0 10.557449317323 7.62911405798048 7.82510122284293
459 152 4 0 10.3894847379718 8.34163105156273 6.86567069962621
460 152 5 0 11.3494847379718 8.34163105156273 6.86567069962621
461 152 4 0 11.5894847379718 7.41163105156273 6.86567069962621
462 153 4 0 -0.428924002479762 4.95837002451532 4.15404760278761
463 153 5 0 0.531075997520238 4.95837002451532 4.15404760278761
464 153 4 0 0.771075997520238 4.02837002451532 4.15404760278761
465 154 4 0 -0.148933850722387 12.4136486281082 9.15295970044099
466 154 5 0 0.811066149277613 12.4136486281082 9.15295970044099
467 154 4 0 1.05106614927761 11.4836486281082 9.15295970044099
468 155 4 0 10.0663467908464 3.57234417036176 13.7096837803256
469 155 5 0 11.0263467908464 3.57234417036176 13.7096837803256
470 155 4 0 11.2663467908464 2.64234417036176 13.7096837803256
471 156 4 0 2.49806346997619 3.11893690884113 12.8657040128019
472 156 5 0 3.45806346997619 3.11893690884113 12.8657040128019
473 156 4 0 3.69806346997619 2.18893690884113 12.8657040128019
474 157 4 0 6.23529574295506 15.0441459733434 7.13524747523479
475 157 5 0 7.19529574295506 15.0441459733434 7.13524747523479