LAMMPS (29 Sep 2021 - Update 1)
Reading data file ...
  triclinic box = (0.0000000 0.0000000 0.0000000) to (15.000000 15.000000 15.000000) with tilt (0.0000000 0.0000000 0.0000000)
  2 by 4 by 4 MPI processor grid
  reading atoms ...
  1508 atoms
  scanning bonds ...
  3 = max bonds/atom
  scanning angles ...
  3 = max angles/atom
  scanning dihedrals ...
  4 = max dihedrals/atom
  scanning impropers ...
  1 = max impropers/atom
  reading bonds ...
  1007 bonds
  reading angles ...
  509 angles
  reading dihedrals ...
  8 dihedrals
  reading impropers ...
  3 impropers
Finding 1-2 1-3 1-4 neighbors ...
  special bond factors lj:    0        0        1       
  special bond factors coul:  0        0        1       
     3 = max # of 1-2 neighbors
     4 = max # of 1-3 neighbors
     7 = max # of special neighbors
  special bonds CPU = 0.002 seconds
  read_data CPU = 0.017 seconds
WARNING: Using 'neigh_modify every 1 delay 0 check yes' setting during minimization (../min.cpp:188)
Neighbor list info ...
  update every 1 steps, delay 0 steps, check yes
  max neighbors/atom: 10000, page size: 100000
  master list distance cutoff = 13
  ghost atom cutoff = 13
  binsize = 6.5, bins = 3 3 3
  3 neighbor lists, perpetual/occasional/extra = 3 0 0
  (1) pair hbond/dreiding/lj, perpetual, skip from (3)
      attributes: full, newton on
      pair build: skip
      stencil: none
      bin: none
  (2) pair lj/cut, perpetual, half/full from (3)
      attributes: half, newton on
      pair build: halffull/newton
      stencil: none
      bin: none
  (3) neighbor class addition, perpetual
      attributes: full, newton on
      pair build: full/bin
      stencil: full/bin/3d
      bin: standard
Setting up cg style minimization ...
  Unit style    : real
  Current step  : 0
WARNING: Energy due to 1 extra global DOFs will be included in minimizer energies
Per MPI rank memory allocation (min/avg/max) = 11.85 | 12.21 | 12.61 Mbytes
Step Temp E_pair E_mol TotEng Press Volume 
       0            0 2.3326554e+24    280.92628 2.3326554e+24 1.895662e+26         3375 
    4843            0   -1021.8795    18.104673   -1003.7749    116.47041    38286.804 
Loop time of 4.34562 on 32 procs for 4843 steps with 1508 atoms

99.9% CPU use with 32 MPI tasks x no OpenMP threads

Minimization stats:
  Stopping criterion = energy tolerance
  Energy initial, next-to-last, final = 
    2.33265535915951e+24   -1003.1691947607  -1003.26571115184
  Force two-norm initial, final = 1.3505965e+27 114.24701
  Force max component initial, final = 7.9031989e+26 86.084547
  Final line search alpha, max atom move = 1.7059126e-05 0.0014685271
  Iterations, force evaluations = 4843 4866

MPI task timing breakdown:
Section |  min time  |  avg time  |  max time  |%varavg| %total
---------------------------------------------------------------
Pair    | 1.5399     | 2.4986     | 3.6728     |  28.9 | 57.50
Bond    | 0.0069588  | 0.010034   | 0.013793   |   1.5 |  0.23
Neigh   | 0.088968   | 0.089332   | 0.089694   |   0.1 |  2.06
Comm    | 0.24934    | 1.4244     | 2.382      |  38.4 | 32.78
Output  | 0          | 0          | 0          |   0.0 |  0.00
Modify  | 0          | 0          | 0          |   0.0 |  0.00
Other   |            | 0.3232     |            |       |  7.44

Nlocal:        47.1250 ave          68 max          35 min
Histogram: 4 5 3 8 4 3 4 0 0 1
Nghost:        1957.81 ave        2034 max        1879 min
Histogram: 3 2 6 3 2 0 3 7 4 2
Neighs:        4811.34 ave        7597 max        3067 min
Histogram: 1 4 8 7 5 2 2 2 0 1

Total # of neighbors = 153963
Ave neighs/atom = 102.09748
Ave special neighs/atom = 2.0106101
Neighbor list builds = 90
Dangerous builds = 0
1500 atoms in group WAT
8 atoms in group MOL
Neighbor list info ...
  update every 2 steps, delay 10 steps, check yes
  max neighbors/atom: 10000, page size: 100000
  master list distance cutoff = 13
  ghost atom cutoff = 13
  binsize = 6.5, bins = 6 6 6
  4 neighbor lists, perpetual/occasional/extra = 3 1 0
  (1) pair hbond/dreiding/lj, perpetual, skip from (4)
      attributes: full, newton on
      pair build: skip
      stencil: none
      bin: none
  (2) pair lj/cut, perpetual, half/full from (4)
      attributes: half, newton on
      pair build: halffull/newton
      stencil: none
      bin: none
  (3) compute group/group, occasional, copy from (2)
      attributes: half, newton on
      pair build: copy
      stencil: none
      bin: none
  (4) neighbor class addition, perpetual
      attributes: full, newton on
      pair build: full/bin
      stencil: full/bin/3d
      bin: standard
Setting up Verlet run ...
  Unit style    : real
  Current step  : 4843
  Time step     : 1
Per MPI rank memory allocation (min/avg/max) = 10.69 | 10.74 | 11.07 Mbytes
Step Temp E_pair E_mol TotEng Press Volume 
    4843          300   -1021.8795    18.104673    343.84936    1725.4575    38286.804 
    4900    293.04495   -1091.4397    218.92142    443.86334    1619.6911    38286.804 
    5000    305.51899   -1105.9231    184.73178    451.22466     1286.548    38286.804 
    5100    295.32597   -1094.5346    165.59068    397.68417    1426.3309    38286.804 
    5200    311.87691   -1067.3209    188.72817    522.38352    773.96963    38286.804 
    5300    304.73603   -1092.6038    189.18634    465.48135    855.78355    38286.804 
    5400    291.16744   -1113.1897    189.21308    383.97103      794.048    38286.804 
    5500    312.51935   -1126.2029    187.28236    464.94166    737.54771    38286.804 
    5600    300.12557   -1059.1388    182.34819    471.39775    506.33129    38286.804 
    5700    309.38944    -1102.379    185.97744     473.4008    346.67544    38286.804 
    5800    296.17641   -1126.4626    187.75823    391.74403    478.77691    38286.804 
    5900    311.95124   -1074.8819     184.1155    510.54374    601.15187    38286.804 
    6000     303.7237   -1120.4549    191.10282    434.99934   -142.32101    38286.804 
    6100    294.50616      -1128.7    188.92031    383.16569    40.622974    38286.804 
    6200    304.50598   -1094.0046    195.84271    469.70353    177.43773    38286.804 
    6300    307.22329   -1103.1051    199.07566    476.04241    1.5164634    38286.804 
    6400    306.13226   -1046.3798    199.31429    528.10533    270.86798    38286.804 
    6500    300.71551   -1054.1184    203.96749    500.68746    264.12103    38286.804 
    6600    292.77245   -1074.7293    204.32265    444.75081    284.81611    38286.804 
    6700    294.99605   -1086.1053     208.4888    447.52953    8.4548375    38286.804 
    6800    290.99253   -1082.4335    212.73302     437.4615    194.14517    38286.804 
    6900    293.26764   -1046.6697    201.70379    472.41598    45.032066    38286.804 
    7000     299.0927   -1096.2973    212.74928    460.00051   -19.432933    38286.804 
    7100    292.64842   -1077.6287    203.77306    440.74469     52.41184    38286.804 
    7200    288.79331   -1110.3194    205.05601     392.0195   -174.86284    38286.804 
    7300    296.28011   -1096.7422    201.23159    435.40357     126.1496    38286.804 
    7400     308.2024   -1071.8401    203.05961    515.68956    486.89616    38286.804 
    7500    295.99279   -1106.1017    214.52668    438.04851   -74.215019    38286.804 
    7600    295.24172   -1045.2426    221.61292    502.62002    286.24639    38286.804 
    7700    302.54485   -1080.5645    223.51946    502.01085    157.20142    38286.804 
    7800    296.14694   -1067.2001    210.25682     473.3727    355.75305    38286.804 
    7900     302.9505    -1115.832    217.14999    462.19611    145.36602    38286.804 
    8000    304.40092   -1110.4025    209.67315    466.66417    418.75448    38286.804 
    8100    308.87372   -1144.6516     232.8343     475.6684    289.92205    38286.804 
    8200     297.9427    -1110.387    221.05626    449.05187    413.38901    38286.804 
    8300     303.2374   -1085.2135     213.1064    490.05986    207.70983    38286.804 
    8400    294.11186    -1104.939    237.86205    454.09733    306.51989    38286.804 
    8500    300.06287   -1072.0774    218.82001    494.64928    218.60863    38286.804 
    8600    303.96669   -1113.1248    251.76824    504.08634    25.463141    38286.804 
    8700    312.09655   -1087.2708    219.58312    534.27518    630.64111    38286.804 
    8800    302.14125   -1110.5925    230.46464    477.11502      201.106    38286.804 
    8900    303.02584   -1106.6532    228.25451    482.81778    285.42191    38286.804 
    9000    311.76891   -1081.4696    237.45933    556.48086    60.212978    38286.804 
    9100    303.95779   -1053.2131     242.2328    554.42269   -80.595096    38286.804 
    9200    309.04176   -1102.1928    235.29676    521.34452    15.733653    38286.804 
    9300    301.05099   -1109.1998    237.03303    480.17861    195.03014    38286.804 
    9400     300.3873   -1162.2004    242.20248    429.36612    286.16343    38286.804 
    9500    293.95155   -1101.3787    223.40802    442.48341    207.44624    38286.804 
    9600    293.82086   -1117.6272    251.10369     453.3435    425.04694    38286.804 
    9700    297.92963   -1122.0179     236.2431    452.54915    318.96908    38286.804 
    9800    311.44972   -1148.7256    229.56428    479.89594    325.03706    38286.804 
    9900    303.28595    -1171.437     246.3521    437.30006    331.63743    38286.804 
   10000     296.5745   -1142.4195    247.74615     437.5633    71.558899    38286.804 
   10100    300.31417   -1138.4458    244.55507    455.14482   -329.55751    38286.804 
   10200    288.09787   -1123.7767    245.48617    415.86837    47.906728    38286.804 
   10300    297.24703   -1128.8711    242.50899    448.89559    268.01244    38286.804 
   10400    293.08726   -1154.7252    257.54064    419.38703    151.37921    38286.804 
   10500     285.8206   -1099.9176    265.75898    449.77061    287.96203    38286.804 
   10600    293.90446   -1121.3906    242.80315    441.65516    326.20646    38286.804 
   10700    292.29203   -1130.8349     256.0194    438.18395    104.69533    38286.804 
   10800    295.68697   -1117.8364    259.57244    469.98575    168.91872    38286.804 
   10900    294.54504   -1173.1821    262.62253    412.56047   -2.6973302    38286.804 
   11000    306.18942   -1158.6404    253.55837    470.34563    542.28875    38286.804 
   11100    308.91745   -1161.0051    246.92234    473.59941    152.67566    38286.804 
   11200    307.40577   -1132.7942    257.47016    505.56748      641.339    38286.804 
   11300    298.12325   -1159.8964    267.89478    447.19211    389.44381    38286.804 
   11400    286.85176   -1209.1293    267.11121    346.54318    347.29435    38286.804 
   11500    304.11257   -1166.2544    251.53863    451.38247    790.36744    38286.804 
   11600    297.80834   -1219.4575    266.32846    384.65009    238.49877    38286.804 
   11700    300.28156   -1166.7831    260.60445    442.71035    306.04423    38286.804 
   11800    313.88957   -1187.7263     261.9338    484.22481    697.60472    38286.804 
   11900    300.28175   -1200.0066    261.86749    410.75078    221.03355    38286.804 
   12000    309.54321   -1163.1977    270.12411    497.41949    538.17287    38286.804 
   12100    294.10099   -1175.9747    255.05417    400.20481    568.92332    38286.804 
   12200    309.33981   -1209.5021    275.76165    455.83894    419.14095    38286.804 
   12300    298.12309   -1179.6442    269.39791    428.94667    424.10952    38286.804 
   12400    308.53654   -1193.2783    254.19476    446.88754    354.80312    38286.804 
   12500     305.6826   -1205.7291    267.60451    435.02629    249.93351    38286.804 
   12600    290.68781   -1210.9931    268.39148    363.19146    132.13133    38286.804 
   12700    290.54159   -1159.3541    266.92499    412.70719    267.50246    38286.804 
   12800     296.1363   -1194.8931    273.97371    409.34881    523.68065    38286.804 
   12900    304.53965   -1174.1317    271.59684    465.48185    182.37865    38286.804 
   13000    302.02123   -1162.3576    279.29483    473.64099    228.06866    38286.804 
   13100    308.76483   -1163.3413     285.8183    509.47354    199.40567    38286.804 
   13200    301.45261   -1170.1051    287.46796    471.51227    618.83739    38286.804 
   13300    288.61588   -1227.3778    287.42779    356.53579    455.23218    38286.804 
   13400    302.57939   -1193.4498    256.67162    422.43282    598.73808    38286.804 
   13500    292.74582   -1174.0236    270.19263    411.20688    648.46654    38286.804 
   13600    295.88059   -1171.8437    281.11559    438.39138    636.58111    38286.804 
   13700    293.82143    -1141.951    267.11996    445.03859    143.57444    38286.804 
   13800    296.10819   -1175.0073    300.52684     455.6614   -68.681749    38286.804 
   13900    296.94627   -1159.4104    273.45951    447.95571    88.389052    38286.804 
   14000    304.00919   -1136.7417     283.8263    512.71849   -129.47335    38286.804 
   14100    304.67705   -1139.8831    310.54605    539.29685   -188.59681    38286.804 
   14200    293.20555   -1146.8708    283.49367    453.72587   -41.220377    38286.804 
   14300    300.15709   -1200.7938    273.74303    421.27911   -164.68351    38286.804 
   14400     305.2089   -1201.6711    287.08422    456.43619    82.181795    38286.804 
   14500    297.79294   -1213.8245    296.28275    420.16815    183.39293    38286.804 
   14600    305.83913   -1210.7565    287.58926     450.6868    481.31496    38286.804 
   14700    301.90345    -1237.354    283.84962    402.67029    447.99296    38286.804 
   14800    297.89253   -1187.4357    273.04168    423.76325    262.15461    38286.804 
   14900     306.7537   -1187.3557      279.163    469.76968    38.775669    38286.804 
   15000    301.79725   -1186.1606    291.51667    461.05366   -183.15135    38286.804 
   15100    289.29057   -1217.7191    297.92865    379.72614   -169.15944    38286.804 
   15200    298.01174   -1224.7251    286.78196    400.74967    222.79528    38286.804 
   15300    297.18884   -1169.2263    279.22124    444.99118    385.04626    38286.804 
   15400    308.02281   -1174.3958    307.95881    517.22633     246.3927    38286.804 
   15500    297.48705   -1179.0582    288.31185    445.58947    91.424205    38286.804 
   15600    296.72875   -1190.1383    307.69072    450.48188    411.42777    38286.804 
   15700    287.79021   -1174.8535     312.1335    430.05684    440.17011    38286.804 
   15800    311.39521   -1186.3022    286.81227     499.3225    709.46682    38286.804 
   15900    289.63447   -1219.4661    314.46509    396.06037    230.82281    38286.804 
   16000    303.85023   -1218.4681    293.00335    439.45504     247.5095    38286.804 
   16100    302.41232    -1207.145    289.28429     440.5998    180.01005    38286.804 
   16200    314.84189   -1202.6107    315.33579    527.02033    673.58134    38286.804 
   16300    309.29734   -1203.9614    302.64502    488.07224    306.92602    38286.804 
   16400    301.13781   -1231.4129    291.68702    413.00944    487.57518    38286.804 
   16500     315.9345    -1205.843    302.89732     516.2576    239.99387    38286.804 
   16600    305.78579   -1252.2868    284.88681    406.21443    277.90457    38286.804 
   16700    297.06226   -1222.4623    300.76863    412.73396     459.2337    38286.804 
   16800    306.04569   -1195.3334     315.4666    494.91514    83.230157    38286.804 
   16900    299.35228   -1248.7952    305.73744    401.65683    278.65752    38286.804 
   17000    296.03774   -1219.4097    278.93184    389.34754    280.45079    38286.804 
   17100    291.17004   -1239.8792    292.02781    360.10793    -118.2997    38286.804 
   17200    290.75506   -1207.8908    294.97087    393.17528   -298.92782    38286.804 
   17300      299.427   -1202.1929    293.64647     436.5039    529.99502    38286.804 
   17400    291.18696   -1208.8628    308.80048    407.97308   -24.590408    38286.804 
   17500     299.2592   -1190.4181    318.56971    472.44811    134.83702    38286.804 
   17600    287.27292   -1222.2529    314.17223     382.3725    411.12465    38286.804 
   17700    297.61744   -1219.1157    294.96983    412.77575    226.94519    38286.804 
   17800    299.78356   -1215.4997    307.07851    438.23073    613.04725    38286.804 
   17900    304.47034   -1244.1905    315.89316    439.40806    86.168802    38286.804 
   18000    310.99117   -1230.2015    307.81226    474.60818    760.88977    38286.804 
   18100     307.4525   -1234.0983    301.70967    448.71282    400.56396    38286.804 
   18200    309.44758   -1236.7155    305.63398    458.98202   -62.733619    38286.804 
   18300    313.02226   -1224.7347    294.44346    475.82998    105.50832    38286.804 
   18400    302.01985   -1267.9164    302.10498    390.88609    -29.86136    38286.804 
   18500    294.74718   -1236.9845    312.21761    399.26119   -244.88442    38286.804 
   18600    302.06091   -1234.6279    325.19375     447.4479    183.61962    38286.804 
   18700    309.85896   -1252.9538    311.00604    449.96367     133.2486    38286.804 
   18800    304.88891   -1195.9063    304.85899     478.5383    493.20699    38286.804 
   18900    299.50394   -1259.8289    326.93593    412.50295    476.43864    38286.804 
   19000    298.46079   -1201.2202    316.23546    455.72527    597.79948    38286.804 
   19100    302.13911   -1181.2584    330.02156    505.99647    690.16049    38286.804 
   19200    308.07224   -1206.5079    319.26129    496.63874    70.759812    38286.804 
   19300    290.90695   -1228.8704    338.25398    416.16107   -6.1255036    38286.804 
   19400    291.52766   -1225.5351    320.05994    404.09059   -180.09504    38286.804 
   19500    298.61824   -1237.3298    305.14725     409.2347    198.65439    38286.804 
   19600    292.45167   -1246.2829      317.589    385.02259    313.72653    38286.804 
   19700     288.4304   -1226.2822    324.14888     393.5193   -120.21987    38286.804 
   19800    302.14682   -1238.4578    340.20936     459.0195    223.74714    38286.804 
   19900    300.12312   -1202.6347    327.95173     473.4943     205.8508    38286.804 
   20000    310.75563   -1256.1688    321.14148    460.91209    614.16392    38286.804 
   20100    293.50133   -1310.0029    317.71003    326.13881    452.42999    38286.804 
   20200    302.82127   -1255.4267    322.87752    427.74839    253.73617    38286.804 
   20300    290.26657   -1255.2805    329.36942    377.98982    360.42132    38286.804 
   20400    312.29422   -1242.4467    320.09405    480.49825     563.1817    38286.804 
   20500    299.33806   -1245.0831    334.87132     434.4389    608.56887    38286.804 
   20600     303.1777   -1255.5407    333.25469    439.61272    889.46426    38286.804 
   20700    294.12729   -1231.4773    315.51186    405.27811    418.05078    38286.804 
   20800     300.5451   -1217.5938    333.16116    465.64024    395.39562    38286.804 
   20900    307.79523   -1225.7232    342.49351    499.41136    350.77565    38286.804 
   21000    296.68136   -1255.4183    320.76844    398.06673    346.76081    38286.804 
   21100    298.14416   -1296.9962    315.91645    358.20788   -112.66242    38286.804 
   21200    293.30205   -1214.7951    296.44671    399.18814   -77.032634    38286.804 
   21300    302.95682   -1246.4228    319.57398    434.05772    368.05329    38286.804 
   21400    297.17355   -1260.4549    340.13927    414.61197    413.74937    38286.804 
   21500    296.68648   -1220.6491    328.52546    440.61599    560.56876    38286.804 
   21600    303.98695   -1241.3897    318.04575    442.18999     349.4248    38286.804 
   21700    298.99266   -1270.5404    329.55788    402.11668    221.78514    38286.804 
   21800    305.63499   -1261.7779    323.61116     434.7703    596.49584    38286.804 
   21900    300.35725    -1284.266    326.50367    391.46669    470.01408    38286.804 
   22000    297.78184   -1254.6447    308.67593    391.69133    699.74243    38286.804 
   22100     299.5591   -1230.1962    306.93583    422.38328     286.0414    38286.804 
   22200    303.01095      -1202.5    331.96814    490.61784    615.04841    38286.804 
   22300    298.92122   -1267.1309     327.1938    402.84114    397.50922    38286.804 
   22400    306.79308   -1251.2913    325.65098    452.49897    281.73537    38286.804 
   22500    307.17539   -1265.8818    327.14833     441.1232    320.22735    38286.804 
   22600    306.34809   -1243.0243     320.3195    453.43557    867.10755    38286.804 
   22700     296.9489   -1288.9601    304.51159    349.46996    258.76271    38286.804 
   22800    304.53419   -1256.9014    326.34882    437.43957    370.24562    38286.804 
   22900    303.31919    -1231.463    312.24809    443.31937    151.95023    38286.804 
   23000    301.55252   -1287.3638    320.87926    388.11373    29.153473    38286.804 
   23100    304.61677   -1243.5807    351.61318     476.3956    583.90931    38286.804 
   23200    302.68843   -1260.5248     338.4551    437.63114    573.10624    38286.804 
   23300    305.86515   -1241.0115    337.80977     470.7692     437.8584    38286.804 
   23400     302.4511   -1252.0126    313.31834    419.94051    580.98239    38286.804 
   23500    297.05228   -1230.3132    335.84382    439.91343    361.36634    38286.804 
   23600    297.23933   -1221.9287    337.22571    450.52003    316.39648    38286.804 
   23700    304.87373   -1221.9161    351.41634     499.0176    53.615059    38286.804 
   23800    302.10353   -1208.7698    337.36307    485.66667    654.18399    38286.804 
   23900    293.33648   -1186.1498    331.53505    463.07637    499.53205    38286.804 
   24000    310.40597   -1221.1138    356.94925    530.20408    247.58663    38286.804 
   24100    303.57333   -1201.0144     363.7868    526.44831   -248.86415    38286.804 
   24200    302.98994   -1215.5338    349.89593    495.41741    135.53389    38286.804 
   24300    296.30581   -1222.3911     348.1226    456.76107   -221.68924    38286.804 
   24400    295.10281   -1262.3555    328.42118    391.69132   -84.911761    38286.804 
   24500    309.70514   -1274.6514    315.35637    431.92544    106.72024    38286.804 
   24600     301.0347   -1228.8326    349.57328    473.01291    45.405875    38286.804 
   24700    310.74017    -1256.686    357.55516    496.73903    10.126399    38286.804 
   24800    310.33718   -1279.3626    359.83165     474.5287    142.79608    38286.804 
   24900    293.85694   -1287.6559    313.02431    345.39749   -411.38756    38286.804 
   25000     305.3384   -1275.0459    339.49306    436.05189    -502.3342    38286.804 
   25100    302.94573   -1233.9703    356.09493     482.9813   -178.29826    38286.804 
   25200    303.60602   -1220.2656    345.03464    488.59179    454.69162    38286.804 
   25300    306.22173   -1239.1579     363.0653    499.48014    671.99157    38286.804 
   25400    298.71885   -1237.5437    338.56834    442.89383   -106.73084    38286.804 
   25500    294.98388   -1215.2501    343.01871    452.86005     419.2981    38286.804 
   25600    302.08554   -1258.5865    353.41439    451.82058    712.94173    38286.804 
   25700    290.17002   -1255.9916    342.07217    389.54773    586.25424    38286.804 
   25800    303.43988   -1285.6921    357.47729    434.86165   -323.28349    38286.804 
   25900     303.8548   -1305.1477    333.53622    393.32877    -619.6027    38286.804 
   26000    306.22064   -1288.7817    353.03254    439.81867   -700.26935    38286.804 
   26100    298.65765   -1263.1081    330.91537    409.40157     -264.725    38286.804 
   26200    294.67363    -1273.422    333.83539    384.11117   -329.92153    38286.804 
   26300    295.08552   -1299.6116    352.45805    378.39442    83.867635    38286.804 
   26400    304.62313   -1268.7059    341.53686    441.22264    1.9589294    38286.804 
   26500    297.62709   -1302.8017    332.76926     366.9325   -206.90434    38286.804 
   26600    303.62434   -1282.4361     357.7531    439.22209    681.20403    38286.804 
   26700    320.78481   -1292.3042    324.46853    473.15562    681.28354    38286.804 
   26800    291.62867   -1281.6785    342.69004     371.0311    249.06378    38286.804 
   26900      309.478    -1287.077    341.31519    444.43842    536.05793    38286.804 
   27000    310.97731   -1272.9006    356.82195    480.85651    232.03133    38286.804 
   27100    305.15306    -1328.682    354.45169    396.54185     27.73433    38286.804 
   27200    297.36611   -1289.5593    360.25157    406.48483    52.190491    38286.804 
   27300    295.95171   -1301.2514    353.68539      381.873    102.88106    38286.804 
   27400    297.46266   -1274.6132    342.28855     403.9016    127.27024    38286.804 
   27500    302.47021   -1281.5791    363.60525    440.74679   -120.77219    38286.804 
   27600    305.58404   -1243.3092    349.88059    479.27957    125.18062    38286.804 
   27700    300.80851   -1275.0121    363.01059    439.25455   -374.71951    38286.804 
   27800       296.93   -1256.9789    334.00103    410.85567   -465.77305    38286.804 
   27900    304.26973   -1330.8286    350.89766    386.87322    20.020022    38286.804 
   28000     298.0244   -1270.7265    348.47937    416.50251    192.76367    38286.804 
   28100    298.99062   -1322.5711    362.01637    382.53531    316.57926    38286.804 
   28200    307.77032   -1322.6209       347.82    407.72827    206.48786    38286.804 
   28300    304.66641   -1346.8982    355.85276    377.54066    253.32861    38286.804 
   28400    310.05189   -1331.8999    374.66083    435.53907    133.93686    38286.804 
   28500    293.86879   -1332.8774    342.44104    329.64599    166.92887    38286.804 
   28600    300.51062   -1331.3086    352.88931     371.4987    19.343946    38286.804 
   28700    304.05729   -1360.6639    353.57244    358.75847    -74.94544    38286.804 
   28800    302.91034   -1355.4007    332.46545    337.76246    595.04206    38286.804 
   28900     301.8793    -1303.855    353.97956    406.19074    502.43083    38286.804 
   29000    295.14558   -1338.5984     345.2456      332.465    314.49198    38286.804 
   29100    284.59626   -1369.4746    362.60872    271.56355    981.76228    38286.804 
   29200    301.12232   -1352.3011    352.39102    352.75572     561.7085    38286.804 
   29300    296.17626    -1335.313    350.88113    346.01582    491.83418    38286.804 
   29400    309.16099    -1292.438     372.7768    469.11493    693.73262    38286.804 
   29500    316.99631    -1314.403     370.4329    480.00292    444.64793    38286.804 
   29600    305.32346   -1314.8543     350.5386    407.22196    120.70663    38286.804 
   29700    295.73635    -1303.833    351.50263     376.1412    160.03149    38286.804 
   29800    300.16981   -1279.2951    363.74688    432.83878   -104.67996    38286.804 
   29900     295.7902   -1300.1182       355.19    383.78526    44.328255    38286.804 
   30000    303.67996   -1273.9745    360.08367    450.26407    511.99411    38286.804 
   30100    312.28844   -1298.7046    352.47068    456.59099    255.73037    38286.804 
   30200    301.92559   -1337.6351    362.69187     381.3309    510.15869    38286.804 
   30300    298.66073   -1297.4529    369.09811    413.25334     399.3267    38286.804 
   30400    295.15776   -1342.0773    340.50082    324.29606    201.28639    38286.804 
   30500    294.47986   -1303.3647    355.59792    375.06055    86.195001    38286.804 
   30600     296.7624   -1270.5896    369.17591      431.667    394.62057    38286.804 
   30700    286.78549    -1315.711    354.78438    327.33697    156.88216    38286.804 
   30800    305.21671     -1278.87    373.24598    465.43406    157.43964    38286.804 
   30900    294.29006   -1311.2795    376.47507    387.17035   -191.72797    38286.804 
   31000     302.8958   -1284.3769    372.85107    449.10658    611.53912    38286.804 
   31100    308.47887   -1246.4319    366.33484    505.61495   -11.124289    38286.804 
   31200    307.90195   -1299.8185    357.63484    440.93673    310.08786    38286.804 
   31300    299.16511   -1292.7282    366.56407    417.70972    185.53942    38286.804 
   31400     301.7753   -1285.9756    355.55328    425.17667   -117.47663    38286.804 
   31500    304.92757   -1255.8375    349.53075    463.45254    342.09577    38286.804 
   31600    299.77634   -1299.6051    354.42845    401.44284    146.46212    38286.804 
   31700    296.28588   -1264.2079    364.28533    431.01753    350.64482    38286.804 
   31800    290.22961   -1276.2235    369.74806    397.25945    169.71175    38286.804 
   31900     301.9236   -1282.3059     359.2285    433.18783      246.214    38286.804 
   32000    316.40571   -1279.3935    359.90769    501.83418    382.31246    38286.804 
   32100    301.83875   -1277.3076    354.39123     432.9677    121.33089    38286.804 
   32200    297.29026   -1323.6538    345.82124    357.61926   -176.88517    38286.804 
   32300    306.13989    -1295.898    356.45399    435.76112    45.305802    38286.804 
   32400    297.12526   -1270.2409    362.99856    427.46827   -107.80958    38286.804 
   32500    300.91322   -1298.7497    353.34424    406.32098   -136.95543    38286.804 
   32600    305.39709   -1297.8555    359.93804    433.95096   -86.419688    38286.804 
   32700    298.03473   -1274.3233    356.55096    421.02368    96.551274    38286.804 
   32800    295.05447   -1303.0824    349.84878     372.1749    564.97104    38286.804 
   32900    300.13292   -1320.7427    354.04432    381.52291    448.69102    38286.804 
   33000    294.53915   -1307.7372    357.77113     373.1276    10.262168    38286.804 
   33100     302.0799   -1280.7204    365.80328    442.05013    257.16876    38286.804 
   33200    304.28646   -1279.2063    382.35016    470.02318   -160.77537    38286.804 
   33300    303.89827   -1318.6438    366.21578    412.70758   -299.32306    38286.804 
   33400    300.43163   -1286.0871     353.0285    416.50454   -129.07633    38286.804 
   33500    297.44029   -1293.1165    376.72732    419.73666   -70.611789    38286.804 
   33600    302.09549   -1288.0285    366.50149    435.51034   -15.329068    38286.804 
   33700    298.19797   -1345.6982    370.00112     363.8323    183.10831    38286.804 
   33800     299.7053   -1332.1012    370.22056    384.41978   -89.528495    38286.804 
   33900    298.90551   -1313.6869    365.12317    394.14397    93.158403    38286.804 
   34000    306.19623   -1280.1858    369.97115    465.24355    160.75436    38286.804 
   34100    296.39389   -1282.6259    378.17898     426.9784   -31.281892    38286.804 
   34200    311.11618   -1338.1814     353.4264    412.80402    57.036336    38286.804 
   34300    301.44396   -1310.7743    380.93504    424.27133    912.16485    38286.804 
   34400    297.74456    -1287.962     365.9435    415.47409    457.06606    38286.804 
   34500    303.59957   -1301.3828    368.79135    431.20236    694.51607    38286.804 
   34600    299.88303   -1325.2758    377.31849    399.14151     545.3925    38286.804 
   34700    301.36397   -1281.0826    366.80839    439.47705   -117.42596    38286.804 
   34800    309.77471   -1293.3868    376.77093    474.91714    459.75517    38286.804 
   34900    301.79198   -1352.3622    359.46412    362.77584      315.237    38286.804 
   35000    306.43325   -1326.2759    366.90174    417.14871   -166.16902    38286.804 
   35100    308.31374   -1320.7683    394.77341    458.97533   -15.375664    38286.804 
   35200    289.26966   -1301.7932    368.15436    365.78384    126.74145    38286.804 
   35300    305.98559   -1297.4062    379.71281    456.81861     731.3418    38286.804 
   35400    296.42312   -1317.8243    376.18364    389.91594   -318.08135    38286.804 
   35500    300.12178   -1329.8369    355.68624    374.02063   -45.755522    38286.804 
   35600    317.48058   -1322.9191     372.9767    476.20604    217.42322    38286.804 
   35700    308.25942   -1342.8897    384.05075    425.88729    16.005637    38286.804 
   35800    300.54124   -1306.8308    386.62718    429.85192   -455.41156    38286.804 
   35900    304.30176   -1341.7923    395.57144    420.72716    -239.5664    38286.804 
   36000    303.08535   -1320.5806    381.87636     422.7796    256.61566    38286.804 
   36100    307.46386   -1364.4355    382.14792    398.86492   -279.13008    38286.804 
   36200    299.16583    -1363.503    385.94132    366.31537    146.73244    38286.804 
   36300    304.06917   -1348.3174    365.96941     383.5553    31.836297    38286.804 
   36400    298.30469    -1347.387    370.14644     362.7682    195.59078    38286.804 
   36500    298.12533    -1355.788    385.20374    368.61883    288.97559    38286.804 
   36600    306.59526   -1354.9553    374.70569    397.00108   -105.73815    38286.804 
   36700    296.48116   -1378.4962    363.72763    317.04875     268.3943    38286.804 
   36800    311.18713   -1337.5824    374.33077    434.62612    5.7140388    38286.804 
   36900    303.71314   -1339.5692     381.6973    406.43203    9.7062414    38286.804 
   37000    314.02965   -1313.9487     375.9577    472.65554   -165.92138    38286.804 
   37100    294.30869   -1303.2838    359.29054    378.06514     154.4819    38286.804 
   37200    295.86939   -1331.1673    384.97073    382.87263    331.68187    38286.804 
   37300    294.71984   -1337.6018    359.36779    345.67128   -279.30031    38286.804 
   37400     290.4742   -1256.9872    404.69056    452.53692   -129.90043    38286.804 
   37500    294.66296   -1336.4462    369.68002    356.88359   -296.48034    38286.804 
   37600     300.4281   -1330.2676    371.30596    390.58562    109.13353    38286.804 
   37700    291.78916   -1339.2284    377.60284    349.11485    175.22081    38286.804 
   37800    315.35595   -1328.3003     376.0972    464.40128    627.52969    38286.804 
   37900    310.23475   -1287.1551    392.06571     498.5102    277.99109    38286.804 
   38000      302.763   -1284.2051    368.11488    443.94559    256.79515    38286.804 
   38100     298.1306   -1312.7809     361.7978    388.24361   -175.19654    38286.804 
   38200    295.55959   -1341.8378    376.77196    362.61174   -93.546376    38286.804 
   38300    298.82254   -1295.9095    367.99987     414.4254   -312.02424    38286.804 
   38400    304.92228   -1307.6572     371.9748    434.05308    15.468428    38286.804 
   38500    299.66047   -1303.7707    380.63689    422.96521    161.72708    38286.804 
   38600    289.71523   -1334.5417    396.50949    363.39198    456.79435    38286.804 
   38700    293.54924   -1337.5865    405.72381    386.78415    449.37552    38286.804 
   38800    300.65268   -1301.9128    396.06276    444.70604       627.83    38286.804 
   38900    306.14659     -1297.15    386.30241    464.38763    557.78772    38286.804 
   39000    307.39392   -1284.0091    395.25755    492.08673    206.21826    38286.804 
   39100    294.82502   -1266.8732    395.12239    452.62694    149.49967    38286.804 
   39200    293.41586   -1249.0797    387.43557    456.40362    397.12782    38286.804 
   39300    310.03032   -1246.7319    394.37879    540.32814   -413.12829    38286.804 
   39400    302.67796   -1249.7915     393.0089    502.87121   -304.67246    38286.804 
   39500     291.7841   -1296.5793    390.63076    404.76924   -175.86049    38286.804 
   39600    291.62369    -1292.627    403.25145    420.62165    60.551015    38286.804 
   39700    297.39001   -1300.2759    382.18071    417.80474    203.00521    38286.804 
   39800    292.98831   -1336.0771    379.87541    359.92544    400.11335    38286.804 
   39900     308.5128   -1367.2967    377.13884    395.70657   -142.21238    38286.804 
   40000    307.25126   -1339.5844    394.16453    434.77765    158.67423    38286.804 
   40100    289.64207   -1346.4921    393.19768    347.80114    785.62125    38286.804 
   40200     305.1208   -1334.7645    383.25641    419.11917    674.86875    38286.804 
   40300     295.3535   -1349.0693    383.32679    361.00927     538.4288    38286.804 
   40400    301.83233   -1283.8784     419.7503    491.72708    433.01105    38286.804 
   40500    295.29366   -1326.7147    392.20715    391.97548    446.23386    38286.804 
   40600    299.18352   -1338.2075     383.0473    388.79639    102.14972    38286.804 
   40700    294.60815   -1311.4386      378.212    390.17703   -254.40425    38286.804 
   40800    292.49504   -1289.7808    398.75919    422.88969    226.57766    38286.804 
   40900     286.4323   -1350.6501    391.07235    327.09925    59.830086    38286.804 
   41000    301.01255   -1373.8654    371.12664    349.43388   -82.136201    38286.804 
   41100    300.96302   -1376.8571    381.37633     356.4694    332.08695    38286.804 
   41200    299.93903   -1324.9362    384.17408    406.58822    192.59179    38286.804 
   41300    302.91044   -1320.7413    416.14573    456.10257    602.27451    38286.804 
   41400    305.66771    -1311.013    397.21927    459.29032    480.52315    38286.804 
   41500    299.83621   -1303.5579    416.62424    459.95476    121.54498    38286.804 
   41600    303.08719   -1356.8624    373.86035    378.49008   -234.23363    38286.804 
   41700    301.89859   -1354.9884    391.05136    392.21585   -226.89854    38286.804 
   41800    290.37347   -1322.2217    402.44457    384.60392   -263.99357    38286.804 
   41900    300.04636   -1317.2282    372.24045    402.84474    319.69225    38286.804 
   42000    303.65755   -1351.6623    365.38939    377.78136    30.538706    38286.804 
   42100     310.3266   -1365.3974    386.20764    414.82241    455.32985    38286.804 
   42200    297.57449   -1378.2428    390.28893    348.77482    282.05363    38286.804 
   42300    304.49056   -1392.4971    396.24203    371.54108    941.29718    38286.804 
   42400    310.01148   -1412.6717    370.16055    350.08542   -157.48159    38286.804 
   42500    293.97261   -1353.6117    384.48532    351.42236   -507.00138    38286.804 
   42600    293.64112     -1378.67    364.38102    304.77063   -583.55793    38286.804 
   42700    293.16381   -1371.7889    361.24763    306.37423   -193.93147    38286.804 
   42800     295.6621   -1363.8005    374.22854    338.56613   -517.84245    38286.804 
   42900    307.22792   -1371.7112    364.49133     372.8727   -375.58672    38286.804 
   43000    301.04404    -1347.489    380.21299    385.03814    159.31237    38286.804 
   43100    300.70447    -1367.166    358.86972    342.49246    493.54618    38286.804 
   43200    304.04097   -1359.2607    418.28262    424.79853    130.98262    38286.804 
   43300    298.71487   -1326.7421    381.52369    396.63298    725.95402    38286.804 
   43400    305.13017    -1317.537    380.02561    433.15797   -90.698856    38286.804 
   43500     302.9823   -1348.1926      378.791    391.61932    29.204524    38286.804 
   43600    294.60601   -1349.0173    383.09214     357.4688    150.91793    38286.804 
   43700    299.42083   -1369.2704     387.1516    362.90375    269.97919    38286.804 
   43800    298.75765    -1344.886    377.07698     374.2345    308.45961    38286.804 
   43900    308.33077   -1343.7468    407.40804    448.70796    507.63251    38286.804 
   44000    304.36224    -1320.334     383.5297    430.41545    559.24654    38286.804 
   44100    297.74373   -1312.8854    398.34043    422.94396    559.97463    38286.804 
   44200    299.20031   -1369.6697     386.4661    360.82837    269.46725    38286.804 
   44300    295.69635   -1378.7153     402.6149    352.19143    365.47698    38286.804 
   44400    306.72202   -1387.8681    390.96242    380.91443    327.49778    38286.804 
   44500    307.51266   -1409.1554    367.99838    340.21462    139.74176    38286.804 
   44600    300.15433   -1411.1843    372.46971    309.60287     41.68749    38286.804 
   44700    299.25038   -1404.5096    371.89755    311.64483   -355.76493    38286.804 
   44800    299.06885   -1393.2505    386.05692    336.24783    90.172181    38286.804 
   44900    305.73271   -1382.0025     386.6719    378.04548    376.25881    38286.804 
   45000    289.60079   -1401.4982    379.15339    278.56538     212.8096    38286.804 
   45100    294.17738    -1395.804    379.70016    305.36469    274.79542    38286.804 
   45200    295.80077   -1446.2455    373.38875    255.90417    508.76916    38286.804 
   45300    297.55114   -1395.8613    378.15448    318.91693    401.44452    38286.804 
   45400    311.91673     -1377.54    366.55986    390.17501    669.52324    38286.804 
   45500    306.20609   -1383.2046    371.08483    363.38269    379.66213    38286.804 
   45600    307.97767    -1429.685    402.31982    356.09536    156.24459    38286.804 
   45700    290.91802   -1403.6418      368.709    271.89443    275.97933    38286.804 
   45800     307.8717   -1402.2062    367.31059    348.08896    102.89887    38286.804 
   45900    305.33916   -1390.6193    401.68899    382.67787     538.9972    38286.804 
   46000    314.55624   -1405.1209    396.40731     404.2984     264.9744    38286.804 
   46100    297.22616   -1361.3955    378.11367    351.88205    962.08924    38286.804 
   46200    303.24299   -1343.9764    408.19376    426.40933    593.57005    38286.804 
   46300    299.06628   -1369.8542    398.96922    372.54486    453.48183    38286.804 
   46400    298.22947   -1359.0881    388.08762    368.67044   -215.89544    38286.804 
   46500    297.30088   -1350.8496    388.99493    373.64493   -255.09729    38286.804 
   46600    297.86596   -1325.2703    411.21476    423.98236   -170.22015    38286.804 
   46700    308.75451   -1375.8334    372.53448    383.65124    86.158346    38286.804 
   46800    302.37487   -1407.5584    421.10962    371.84357   -292.75041    38286.804 
   46900     300.9371   -1374.2007    387.41888    365.05189   -440.92843    38286.804 
   47000    288.64493   -1350.1821    394.51082    340.94505   -251.74037    38286.804 
   47100    307.28697   -1397.9409    403.62368    386.04069    -310.2115    38286.804 
   47200    303.18854   -1380.6516    385.86185     367.1577   -140.24682    38286.804 
   47300    303.02178   -1357.2623    391.53211    395.46812    292.89649    38286.804 
   47400    295.61717   -1352.9528    389.70134    364.68472     123.3125    38286.804 
   47500    310.49373   -1382.2807    400.65919    413.14144    331.65278    38286.804 
   47600    301.56034   -1366.5342    403.55771    391.65689    433.70227    38286.804 
   47700    297.44454   -1328.6547    392.88621    400.37638    571.92269    38286.804 
   47800    294.81714   -1349.1324    393.41858    368.62855     404.0445    38286.804 
   47900    294.05759   -1369.3537    387.80108     339.3778    586.21742    38286.804 
   48000    314.44878   -1347.9973    411.81829     476.3503   -149.46098    38286.804 
   48100    304.69812    -1343.728    404.60993    429.61045   -494.56667    38286.804 
   48200    294.98362   -1340.2771    416.28341    401.09659   -289.03236    38286.804 
   48300    304.16219   -1318.8476    429.11885     476.5923   -327.76081    38286.804 
   48400    300.32946   -1326.8875    399.94082    422.15752   -649.41364    38286.804 
   48500    297.39556   -1363.3531    427.26117    399.83296   -711.55894    38286.804 
   48600    295.59386   -1355.7185    410.74196    382.85497   -500.13928    38286.804 
   48700    303.06816   -1379.5161    382.31246    364.20302   -334.77746    38286.804 
   48800    296.85833   -1330.0168    385.74855    389.24328   -13.604952    38286.804 
   48900    289.01435    -1353.032    395.27164     340.5154   -147.85175    38286.804 
   49000    300.74881   -1405.8675    388.99843     334.1189    72.743254    38286.804 
   49100    305.96127   -1381.2582    397.61434    390.75885   -43.391747    38286.804 
   49200    299.15013   -1373.5334    396.24181    366.51494    488.39266    38286.804 
   49300    300.20612   -1416.7935    393.16832    324.92497    224.59992    38286.804 
   49400    306.40086    -1430.613    402.73195    348.49634    498.89969    38286.804 
   49500    295.56501   -1430.6789    403.13459    300.15756    3.6383788    38286.804 
   49600     298.7974   -1412.5419    388.65614     318.3363     98.60056    38286.804 
   49700    302.95773   -1452.5329    404.06415    312.44188    251.31967    38286.804 
   49800     290.4079   -1374.9269    403.82122    333.43002   -169.27224    38286.804 
   49900    306.41735   -1423.1913    388.96174    342.22187   -213.91096    38286.804 
   50000    301.08952    -1478.512    397.80299    271.80941   -274.06311    38286.804 
   50100    302.06256   -1415.0257    393.21361    335.07731   -278.95924    38286.804 
   50200    303.63462   -1453.9924    404.16358    314.12235   -23.280569    38286.804 
   50300    302.11387   -1434.5553    406.25764    328.82229    364.85296    38286.804 
   50400    297.19856   -1430.4148    408.69014    313.31525   -1.6275124    38286.804 
   50500     295.2368   -1436.4701    396.88077    286.63819    13.283022    38286.804 
   50600    301.64314   -1444.2602    381.82958    292.57474   -130.90622    38286.804 
   50700    287.04857   -1436.7595     402.0969    254.78272   -408.15562    38286.804 
   50800    296.77624   -1403.3907     403.0572    332.80936     -324.826    38286.804 
   50900    303.78576   -1417.1677     396.2408    343.70324   -407.88795    38286.804 
   51000    298.54726   -1412.0479    404.15837    333.20884   -621.45125    38286.804 
   51100    295.23831   -1450.7999     402.6154    278.04987   -527.68553    38286.804 
   51200     310.0462   -1401.3254    382.85482    374.28195   -262.96397    38286.804 
   51300    289.41171   -1381.6034    416.73833    335.19571    -453.7408    38286.804 
   51400     294.7475   -1362.6921    410.78557    372.12306   -311.60277    38286.804 
   51500    292.98159    -1406.757    411.26221    320.60212    338.16651    38286.804 
   51600    305.87069   -1449.0613    409.93278     334.8673    322.26791    38286.804 
   51700    301.79305   -1434.9955    385.62498    306.30827    130.54631    38286.804 
   51800    305.73862   -1418.9811    412.17821    366.59972   -92.827452    38286.804 
   51900     302.2587   -1408.1207    405.47434    355.12411   -201.55834    38286.804 
   52000    289.76886   -1422.7617    415.80857    294.71201   -280.32265    38286.804 
   52100    304.74353   -1410.0896    414.23077    373.07372    165.69121    38286.804 
   52200    304.70852   -1357.8531    406.09944    417.02161   -309.31243    38286.804 
   52300    305.86053   -1382.2668     401.1262    392.80958   -511.42135    38286.804 
   52400    302.40397   -1353.0541    417.63673    423.00567   -556.45348    38286.804 
   52500     303.3522   -1362.5942    428.73457    428.82296   -308.47368    38286.804 
   52600    291.15334    -1351.951    458.23032    414.16359   -26.611126    38286.804 
   52700    305.85137    -1396.469    410.43054    387.87061    -386.4562    38286.804 
   52800    292.98004   -1392.2805    411.82234    335.63181    304.32758    38286.804 
   52900    296.66372   -1385.0342    404.83088    352.43408    107.85375    38286.804 
   53000    299.96798   -1357.3773    406.61944    396.72255   -23.857587    38286.804 
   53100    299.99483   -1367.7242    411.64244    391.51924    658.39653    38286.804 
   53200    298.31258   -1383.7501    393.86891    350.16302    398.89045    38286.804 
   53300      293.846    -1352.313    403.84793    371.51488    121.09142    38286.804 
   53400     300.5972   -1363.1117    425.40282    412.59805   -17.665407    38286.804 
   53500    303.09696   -1395.1214    435.65775    402.07235    198.94198    38286.804 
   53600    303.86002   -1407.5189    408.60515    366.05004     363.5582    38286.804 
   53700    303.96452   -1394.3238    418.01225    389.12158   -3.9889248    38286.804 
   53800     290.1544   -1370.5167    411.74318    344.62344    272.35964    38286.804 
   53900    303.16875   -1424.3336    402.27871    339.80359    667.95893    38286.804 
   54000    300.26303   -1417.8447    422.01668    352.97782    783.13326    38286.804 
   54100    296.69756   -1445.7911    403.69157    290.68988    1017.0332    38286.804 
   54200    303.45985   -1423.8702    393.78677    333.08269    414.96242    38286.804 
   54300    309.31307   -1439.0594    399.06088    349.46072    532.13309    38286.804 
   54400    304.78251   -1416.4691    429.78225     382.4208    82.326767    38286.804 
   54500       302.33     -1410.24    433.18502    381.03583    22.447762    38286.804 
   54600    306.94186   -1414.1991    410.09155    374.70005    301.21737    38286.804 
   54700     301.8196   -1402.4875    429.26862    382.57911    241.21102    38286.804 
   54800     304.8779   -1411.9481     412.7234     370.3115    437.72707    38286.804 
   54900    291.94662   -1382.0443    409.31838     338.7219    261.62034    38286.804 
   55000    297.65993    -1411.188    429.60102    355.52542    272.13989    38286.804 
   55100    296.72212   -1418.8549    411.45204    325.49686    427.47087    38286.804 
   55200     301.2413   -1418.0115    433.40996    368.59868    564.15715    38286.804 
   55300    301.71336   -1379.7347    414.73667    390.32271   -27.589787    38286.804 
   55400    291.07102   -1379.9504    414.52657    342.09071   -263.04403    38286.804 
   55500    299.29731    -1398.251    409.16359     355.3803    327.86193    38286.804 
   55600    294.20241   -1383.3519    403.40067    341.62973    323.77453    38286.804 
   55700    304.49323   -1399.1748    420.51567    389.14905   -432.82255    38286.804 
   55800     294.0146    -1388.397    418.04633     350.3866   -380.84783    38286.804 
   55900    297.63455   -1381.6348    429.73897    385.10254    176.52088    38286.804 
   56000    299.67221   -1399.6107    420.65128    367.19238     79.71285    38286.804 
   56100    296.02749   -1424.8693    412.01013    316.92025    141.02147    38286.804 
   56200    293.80535   -1400.4511    415.75048    335.09677      73.1311    38286.804 
   56300     301.5523   -1375.9695    398.71179    377.33954    5.1003145    38286.804 
   56400    304.77257   -1410.5297    416.68912    375.22248   -360.48702    38286.804 
   56500    298.69078   -1406.8726     402.7665    337.63701    -567.0372    38286.804 
   56600    291.86809   -1400.8365    406.83951    317.09806    2.2817217    38286.804 
   56700    296.08195   -1403.5137     414.1281    340.63849   -631.38093    38286.804 
   56800    308.18491    -1366.135    419.36291    437.61946   -97.300091    38286.804 
   56900    300.92836   -1377.3585    394.24759    368.68358   -130.58211    38286.804 
   57000    303.99404   -1345.5318    409.72878     429.7628   -487.10469    38286.804 
   57100    294.87201   -1416.9614     398.3196    305.94705   -986.05316    38286.804 
   57200    297.04868   -1430.3832    431.84385    335.82726    -227.9719    38286.804 
   57300    290.95528   -1394.9853    433.41873    345.42806    242.40381    38286.804 
   57400      301.125    -1428.762     423.6841    347.59997   -210.09268    38286.804 
   57500    287.65581   -1409.5303    428.50428    311.14707    -239.1216    38286.804 
   57600    305.11277   -1414.7527    419.44647    375.28495    382.31887    38286.804 
   57700    296.36285   -1378.9816    423.87024    376.17447    296.18864    38286.804 
   57800     301.6228   -1433.1597    411.58826     333.3425   -183.93181    38286.804 
   57900    304.07675   -1417.7818    413.62416    361.77966   -336.05338    38286.804 
   58000    295.32527   -1381.3586    420.77009    366.03646   -356.38163    38286.804 
   58100    293.05893   -1395.2389    420.78923    341.99468   -175.04055    38286.804 
   58200    295.97155   -1385.3016    432.80132    377.02787   -14.481695    38286.804 
   58300    301.40254   -1411.2552    429.66363    372.33296   -165.95905    38286.804 
   58400    293.20454    -1376.505    442.21519    382.80869    46.682729    38286.804 
   58500    297.11232     -1422.72    436.43115    348.36367   -211.41569    38286.804 
   58600    300.65118   -1357.4136    435.06617    428.20195    -134.3259    38286.804 
   58700    308.21172   -1432.4726    414.72598    366.76528   -536.92695    38286.804 
   58800    297.32334   -1406.8289    435.51503    364.28657   -5.1293031    38286.804 
   58900    305.07633   -1401.0041    389.57463    358.99806   -151.55265    38286.804 
   59000    292.30361   -1350.8683    446.33665    408.51972   -148.96688    38286.804 
   59100    293.26982   -1346.6214    427.98684    398.75716   -254.09042    38286.804 
   59200    295.52991   -1347.2293     434.7987    415.11359   -106.39194    38286.804 
   59300    290.61493   -1394.9345    433.76012    344.29136    93.579481    38286.804 
   59400    298.52901   -1411.8754     407.4672    336.60817    216.04774    38286.804 
   59500    293.27599   -1381.4002    443.84984     379.8691   -268.35857    38286.804 
   59600    288.45492   -1396.1238     441.5686    341.20764   -321.70187    38286.804 
   59700    295.62149   -1385.9322    432.57454    374.59793   -140.42774    38286.804 
   59800    290.42331   -1356.3623    425.16645    373.40917   -21.624022    38286.804 
   59900    292.73538   -1398.5304    429.71588    346.17639    686.09267    38286.804 
   60000    295.54108   -1401.2852    436.66172    362.97095     478.9576    38286.804 
   60100    297.50437   -1372.5836    426.68169    390.51173    766.02735    38286.804 
   60200    309.51777   -1368.6674    436.96112    458.67249   -140.49045    38286.804 
   60300    307.62587   -1417.2463    446.34116    410.97513    413.65961    38286.804 
   60400    301.53898   -1442.6124    454.42314    366.34824    357.00971    38286.804 
   60500    296.83141   -1407.5018    430.69542    356.58432    67.647249    38286.804 
   60600    293.93899   -1357.5937    435.68151    398.48551    252.70585    38286.804 
   60700    307.27395   -1390.1867    448.57533    438.68802   -155.60009    38286.804 
   60800    290.13939   -1409.1081    423.56059    317.78201    89.749706    38286.804 
   60900    293.90815   -1392.2633     441.8242    369.82003   -298.62538    38286.804 
   61000     311.2143   -1413.8612    411.00516    395.14369   -279.45823    38286.804 
   61100    303.22719   -1384.9374     443.3184    420.50198   -408.07372    38286.804 
   61200    304.04816   -1399.5794    429.35653    395.58604   -834.49951    38286.804 
   61300     299.2223   -1403.4978    413.00205    353.63496   -665.69463    38286.804 
   61400    302.06116   -1448.5567    430.99822    339.32465    107.21746    38286.804 
   61500    296.36586   -1446.4074     405.3919    290.28388   -157.80896    38286.804 
   61600    303.97427   -1450.3199    428.60471    343.76182   -48.554229    38286.804 
   61700     296.5461   -1463.4026    417.78952    286.49591    211.97289    38286.804 
   61800    295.02988   -1402.8864    409.59958    332.01126   -623.53908    38286.804 
   61900    302.73568   -1425.0221    423.00665     357.8977   -363.63564    38286.804 
   62000    299.83077   -1440.2138    439.95803    346.60829   -227.04808    38286.804 
   62100    298.94557   -1412.3198    433.82031    364.38813   -153.91536    38286.804 
   62200    306.95288   -1405.3917    426.03331    399.49869   -592.63789    38286.804 
   62300    300.86787    -1392.771    429.79909    388.55086    290.43944    38286.804 
   62400    295.58769   -1406.0368    435.84491    357.61189   -229.10889    38286.804 
   62500    299.97105   -1362.8558    447.93679    432.57517    66.859536    38286.804 
   62600    298.88302   -1398.9652    439.65897    383.30043    140.41411    38286.804 
   62700     308.1859   -1414.7165    418.31734    387.99678    146.32023    38286.804 
   62800    291.05474   -1420.9983    424.14243    310.58548    115.02441    38286.804 
   62900    296.31023   -1429.7407    419.21637    320.52515   -190.62704    38286.804 
   63000    305.19228   -1403.5217    431.10441    398.53104    429.83182    38286.804 
   63100    301.51435    -1462.522     432.4188    324.32364   -95.484188    38286.804 
   63200    315.11695   -1440.3408    427.71386    402.90385   -101.64664    38286.804 
   63300    294.08365   -1436.4887    424.77356    309.33232    415.72464    38286.804 
   63400    319.39757   -1372.3667    430.17128    492.56425    213.00651    38286.804 
   63500    303.16684   -1404.3878    424.67261    382.13478    140.84158    38286.804 
   63600    304.00093   -1410.6966    424.73197    379.63207    24.208937    38286.804 
   63700    298.08725   -1444.1437    420.22863    315.11698   -102.30993    38286.804 
   63800     301.4683   -1451.0484    417.69317    320.86467    61.859287    38286.804 
   63900    300.22634    -1451.483    438.63782    335.79583   -229.28043    38286.804 
   64000    298.46116   -1438.3052    428.42483     330.8313    7.9410306    38286.804 
   64100    299.37693   -1502.9588     410.6178    252.48433    170.58335    38286.804 
   64200    285.29784   -1458.3428    398.80648    222.04459    -153.7548    38286.804 
   64300    289.06389   -1446.5636    451.21313    303.14789    134.76289    38286.804 
   64400    303.99949   -1464.2288    441.82506    343.18649    494.93739    38286.804 
   64500    287.99457    -1466.235     429.1058    256.56565   -55.728524    38286.804 
   64600    296.91514   -1492.1226    438.19017    279.83433    118.61337    38286.804 
   64700    302.53275   -1511.4203    439.08273    286.66399    473.83241    38286.804 
   64800    303.70363   -1468.9199    438.85906    334.20042   -124.18173    38286.804 
   64900    301.33804    -1464.805    400.90805    289.73783    8.4483798    38286.804 
   65000    302.72213   -1468.7068    429.48701     320.6325    374.15922    38286.804 
   65100     301.1809    -1457.451    438.11616    333.59407    430.56403    38286.804 
   65200    298.32075   -1438.3701    413.77035    315.48114    -432.8522    38286.804 
   65300    301.46626   -1450.1135    440.87731    344.97461   -784.92049    38286.804 
   65400    301.01347   -1437.8945    405.17817    319.46052   -277.17544    38286.804 
   65500    293.96523    -1414.074    412.27342    318.71494   -458.06179    38286.804 
   65600    301.03819   -1435.0664     440.7362    357.95762   -444.13364    38286.804 
   65700    302.52715   -1446.1401    415.38632    328.22262   -470.23726    38286.804 
   65800    288.52693    -1443.428    449.24483    301.90315    228.28997    38286.804 
   65900    307.35947   -1432.7386    430.18491    378.12989    254.51834    38286.804 
   66000     297.6371   -1472.3473    442.89386    307.55644    317.63168    38286.804 
   66100    304.02953    -1463.489    441.67255    343.90874    622.27267    38286.804 
   66200      294.491   -1430.4955    411.15602    303.53793   -3.7582032    38286.804 
   66300    302.92768   -1441.7037    421.32732    340.39923     317.4888    38286.804 
   66400    302.71081   -1439.5173    432.06508    352.34924   -9.9827468    38286.804 
   66500     308.5678   -1426.3826    439.15484    398.88377    167.87125    38286.804 
   66600    289.82074   -1451.9336    426.37287    276.33745    402.17143    38286.804 
   66700    299.23011   -1432.8063    432.66641     344.0259    156.08175    38286.804 
   66800    306.84039    -1446.683    441.94301    373.61181   -37.037993    38286.804 
   66900    295.10108   -1469.9809    392.44533    248.08229    91.122086    38286.804 
   67000    297.17571   -1452.7196    416.83452    299.05223    401.88287    38286.804 
   67100    290.54747   -1435.6372    416.79543    286.32088   -49.926817    38286.804 
   67200    297.94599   -1428.8863    415.94694     325.4581    291.00758    38286.804 
   67300    301.90046   -1440.8011    438.20949    353.56966    622.66262    38286.804 
   67400    299.33406   -1476.2246    424.41086    292.81904    599.50914    38286.804 
   67500    300.23082   -1442.3444    442.08272     348.3994    223.31695    38286.804 
   67600    295.27266   -1423.2648    447.13107    350.25486    306.35617    38286.804 
   67700    308.05137   -1406.8043     417.0179    394.00518    204.27216    38286.804 
   67800    307.29438   -1404.6089    430.87027    406.65258   -76.247696    38286.804 
   67900    289.57887   -1411.5957    423.53531    312.75129   -255.25563    38286.804 
   68000    311.87282   -1441.8585    418.51685    377.61619    192.98499    38286.804 
   68100    294.45981   -1411.3334    416.91927    328.32314   -557.75416    38286.804 
   68200    302.36271   -1358.0557    423.19226    423.37429   -15.641204    38286.804 
   68300    299.41228   -1396.7146    440.61401    388.88362   -519.62345    38286.804 
   68400    289.75914   -1395.0164    434.74941    341.35444   -155.95854    38286.804 
   68500    290.69879     -1344.35     435.4218    396.91418   -305.13682    38286.804 
   68600    304.16288   -1404.2594    438.43662    400.50139    26.123627    38286.804 
   68700    297.44602   -1391.3251    428.78698    373.61338   -467.40369    38286.804 
   68800    308.06348   -1410.8523    428.61319    401.60693   -258.31377    38286.804 
   68900    290.97214   -1389.5814    462.76813    380.25706   -140.45611    38286.804 
   69000    295.12297   -1366.0468    445.01153    404.68094   -623.32404    38286.804 
   69100    299.76039   -1394.9936    418.26418    369.81842   -420.49831    38286.804 
   69200    291.42133    -1399.612    433.05068    342.52679   -559.97002    38286.804 
   69300    298.84438   -1423.6996    418.60052    337.33407   -479.49039    38286.804 
   69400    311.14166   -1434.8901    419.17852     381.9619    214.69581    38286.804 
   69500    296.84739   -1428.9771    423.32809    327.81343    166.78306    38286.804 
   69600    311.28004   -1428.7031    441.58781    411.17982    5.0523543    38286.804 
   69700    298.47784   -1395.6119    460.14254    405.31726    539.26321    38286.804 
   69800    295.72578   -1414.6261     428.4184    342.21635    378.53203    38286.804 
   69900    303.45904   -1416.5825    417.96589     364.5459    351.14137    38286.804 
   70000    302.22371   -1430.6035    413.64501    340.65486   -153.43639    38286.804 
   70100    304.16069     -1438.15     426.7032    354.86761   -174.68278    38286.804 
   70200    286.53965   -1464.6013    432.90794    255.46591     65.04324    38286.804 
   70300     313.1964   -1455.2368    431.81127    383.47795   -194.99449    38286.804 
   70400    303.09294   -1455.7785    429.24437    334.98386   -76.130086    38286.804 
   70500    302.17816   -1444.0011    456.07987    369.48746   -729.29982    38286.804 
   70600    299.93668   -1432.5725    440.97358    355.74089    -447.6837    38286.804 
   70700    291.51725   -1505.0096    426.76924    231.27867   -247.86469    38286.804 
   70800    303.31718   -1507.4125    421.06781    276.18052   -451.34143    38286.804 
   70900    297.54433   -1484.5086    435.95327    288.03787    177.89813    38286.804 
   71000    302.05618   -1460.8891    439.28915    335.26077   -143.71835    38286.804 
   71100    304.38074   -1463.3766    435.50837    339.43468   -123.10931    38286.804 
   71200    310.67207   -1458.5608    422.95054    359.95376   -648.72763    38286.804 
   71300      293.829    -1415.625    431.11175    335.39036    -455.8642    38286.804 
   71400    300.37399    -1437.706    462.59442    374.19265   -262.76349    38286.804 
   71500     301.0675   -1446.0807    448.17766    354.51643   -230.26124    38286.804 
   71600     304.9656   -1440.9335    441.86099    370.85757     223.2537    38286.804 
   71700    303.30758    -1421.031    431.55171    373.00289   -53.991701    38286.804 
   71800    301.97901   -1442.8448    427.98728     341.6566   -421.42338    38286.804 
   71900     306.6965   -1439.2411    440.81287    379.27726   -38.455078    38286.804 
   72000    301.19267   -1453.7517    451.14021    350.37035    287.52018    38286.804 
   72100    295.74077   -1429.2007    448.60271    347.89347    289.40005    38286.804 
   72200    305.01154   -1477.0058     421.6674    314.79812    570.95889    38286.804 
   72300    296.35293    -1475.615    428.10318    283.72948    64.368805    38286.804 
   72400    305.28945    -1506.951    433.80947    298.24328    458.63802    38286.804 
   72500    302.12848   -1472.9016    426.55585    310.83981    441.71415    38286.804 
   72600    298.07013   -1446.8941     445.8043    337.86532   -378.69142    38286.804 
   72700    302.36246     -1459.27    439.54817    338.51478    -42.33086    38286.804 
   72800    302.45349    -1399.229    427.33482    386.75137   -373.95478    38286.804 
   72900    294.56528   -1435.2392    428.66727    316.63907    -335.7665    38286.804 
   73000    283.24752   -1451.6292    454.41124    275.15275    190.85658    38286.804 
   73100    309.27742   -1417.9474    454.97291    426.32466    499.49903    38286.804 
   73200    297.74727   -1458.7337    429.93461    308.70571    309.93169    38286.804 
   73300    293.42512   -1468.5174     432.2847    281.85665     257.0623    38286.804 
   73400    303.11248   -1490.0523    443.12657    314.67999    515.32546    38286.804 
   73500    306.62996   -1441.0398    431.37023      367.737    412.74176    38286.804 
   73600    296.32244   -1464.6598    410.85313    277.29769    222.19302    38286.804 
   73700    298.86207   -1428.3063    459.27449    373.48079     128.7098    38286.804 
   73800    298.82686   -1464.5113    446.02372    323.86677    444.71273    38286.804 
   73900    298.19558   -1467.6799    443.71248    315.55126    629.43876    38286.804 
   74000    305.84018   -1457.1781    448.39418    365.07482    286.17347    38286.804 
   74100     299.6966   -1501.6747    449.24935    293.83597    236.87245    38286.804 
   74200    299.07947   -1477.0354    427.36493    293.81863    371.81003    38286.804 
   74300    300.88936   -1455.2768    441.58374    337.92619   -560.87735    38286.804 
   74400    294.82917   -1442.0818     446.3136    328.62825   -662.19207    38286.804 
   74500    291.23977   -1424.3112    437.72293    321.68433   -140.22911    38286.804 
   74600    299.31705   -1470.1773    434.32794    308.70695    -219.1523    38286.804 
   74700    310.36181   -1447.0582    409.38588    356.49802    391.12647    38286.804 
   74800    299.73106   -1470.0009    436.38896    312.80418   -95.945144    38286.804 
   74900    299.40761    -1469.233    469.85163    345.58179   -392.23409    38286.804 
   75000    309.06131   -1441.8581    429.34467    375.81498   -222.35433    38286.804 
   75100    308.55253   -1411.1667    439.90448    414.78067   -485.73668    38286.804 
   75200    288.85645   -1417.5284    413.68261    293.72066   -973.42523    38286.804 
   75300    306.22572    -1402.112     449.7334    423.21206    -328.3179    38286.804 
   75400    308.91941   -1440.8332     438.4481    385.30583   -672.05759    38286.804 
   75500    294.57345   -1411.7824    442.84556    354.31087   -53.839213    38286.804 
   75600    307.68202   -1413.6354     441.8642    410.36131     317.0274    38286.804 
   75700    292.47572   -1424.3014    441.43842    330.96159     47.96382    38286.804 
   75800    299.79478    -1406.059    442.64919    383.29259   -248.54012    38286.804 
   75900    300.76503   -1417.8028    456.95982    390.21776    170.41429    38286.804 
   76000    294.96949   -1385.3828    453.23909    392.88307    407.93687    38286.804 
   76100    287.59387     -1436.54    453.56992    308.92484    -451.6571    38286.804 
   76200    298.76366   -1418.3323    434.70405    358.44223   -417.16683    38286.804 
   76300     292.8506   -1403.6894    456.67252    368.49163   -455.02727    38286.804 
   76400    296.16138   -1395.5292     448.7907    383.64229    282.45221    38286.804 
   76500    309.36761   -1408.0301    450.78028    432.45448   -192.70288    38286.804 
   76600    290.47077   -1392.6611    458.11363    370.27066    173.33506    38286.804 
   76700     296.4699   -1417.7001    457.22118    371.28781   -101.13131    38286.804 
   76800    287.56973    -1457.301     450.9647    285.45014   -392.79938    38286.804 
   76900    313.42077    -1394.317    465.15005    478.74448    316.95487    38286.804 
   77000    291.19408   -1414.7039    463.44566    356.80911   -307.24139    38286.804 
   77100    295.97117   -1390.0564    443.79889    383.26892   -272.26101    38286.804 
   77200    306.72208   -1459.9334    437.09174    354.97866    301.47993    38286.804 
   77300     304.5007   -1436.9642    464.73511    395.61261    838.52712    38286.804 
   77400    298.99974   -1449.1649    455.69107    349.65716    344.77044    38286.804 
   77500    293.89905   -1428.6999    431.88354    323.40192    352.04611    38286.804 
   77600    298.04536   -1413.9413    464.39316    389.29564    176.72736    38286.804 
   77700    293.32863   -1468.9853    447.25528    295.92584    85.022111    38286.804 
   77800    301.94885   -1444.1936    447.48621    359.67119   -323.52706    38286.804 
   77900    308.28695   -1440.0467    453.52899    398.33217   -612.20096    38286.804 
   78000     304.2959   -1469.3516    451.16113    348.73133    58.449395    38286.804 
   78100    286.23328   -1453.5963    454.34107    286.52775   -313.86252    38286.804 
   78200    297.68067   -1422.8374     440.5645    354.93266   -297.50849    38286.804 
   78300    293.32752   -1428.3674    471.09819     360.3817    257.17176    38286.804 
   78400    297.22382   -1431.3464    477.35065    381.15768    511.71262    38286.804 
   78500     306.8012   -1418.0079    453.76003    413.92793    803.94026    38286.804 
   78600    296.58676   -1418.1277    481.26864    395.43264    772.76365    38286.804 
   78700    300.17907   -1414.9845    439.80551    373.24963   -8.3477543    38286.804 
   78800    300.80331   -1437.3132    470.91424    384.83374    436.15358    38286.804 
   78900    287.86284   -1434.1783    459.14346    318.06832    108.15932    38286.804 
   79000    298.23446   -1443.8584    469.06224    364.89709    402.57985    38286.804 
   79100    299.41718   -1428.9771    456.98135    373.01044   -359.46267    38286.804 
   79200    301.71049   -1450.8102    457.61728    362.11499   -353.20243    38286.804 
   79300    305.07923   -1504.1484    451.94769    318.23987    543.58826    38286.804 
   79400    294.56991   -1419.6808    465.08945     368.6405   -35.111411    38286.804 
   79500    296.24193   -1420.1419    464.44166    375.04248    49.661978    38286.804 
   79600    301.72678   -1399.2923    473.00654    429.09527   -696.68969    38286.804 
   79700    305.52483   -1453.3878     448.5219    367.57629    71.959765    38286.804 
   79800    299.69783   -1442.2527    451.24151    355.25571    277.21943    38286.804 
   79900    309.12046   -1472.2965    464.49964    380.79721    -121.4808    38286.804 
   80000    303.45433   -1415.1432     460.7573    408.75546   -181.51851    38286.804 
   80100    307.27841   -1434.1172    444.51971    390.72191   -424.56745    38286.804 
   80200    307.74217    -1430.407    436.71882     388.7145   -462.66589    38286.804 
   80300    306.29107   -1439.6453    450.79119    387.03012   -516.52479    38286.804 
   80400    305.58573   -1431.3037    466.76343    408.17547   -305.03817    38286.804 
   80500    289.59234   -1450.2424    459.50264    310.13244    212.22723    38286.804 
   80600    292.78704   -1459.1518     461.5739    317.64515    529.34403    38286.804 
   80700    314.48856   -1445.0651    439.48599    407.12892    1184.1531    38286.804 
   80800    286.73264   -1488.3736    476.91592    276.56848    674.79426    38286.804 
   80900    305.60488   -1477.4961    431.60093     326.9066    515.96087    38286.804 
   81000    292.76916    -1413.911    447.93281    349.16447       22.763    38286.804 
   81100    292.79199   -1452.4017    447.69035    310.53393    282.72039    38286.804 
   81200    301.84164     -1464.16    457.23282    348.96988    397.82217    38286.804 
   81300    299.31738    -1463.948    432.45594    313.06579    322.96863    38286.804 
   81400    309.44631   -1480.2154    466.68854    376.53097   -112.42416    38286.804 
   81500    299.57037   -1469.5781    458.89152    335.00769    78.893475    38286.804 
   81600    302.46219   -1440.6544    426.76754     344.7977   -146.86982    38286.804 
   81700     312.3547   -1456.5374    441.24787    387.83296   -641.17156    38286.804 
   81800    299.85968   -1456.9594    462.37072    352.40519   -407.63657    38286.804 
   81900    303.55511   -1452.1319    433.02546    344.48763    11.741729    38286.804 
   82000    286.52715   -1427.3664    476.88605    336.62279    348.00259    38286.804 
   82100    308.23987   -1434.1453    440.85923     391.3523    219.68751    38286.804 
   82200    302.69766   -1471.8766    429.17687    317.04259    537.37601    38286.804 
   82300    309.75168   -1457.9781    463.53406    396.98553    692.09777    38286.804 
   82400     301.4207    -1474.009    435.40915    315.40629    563.37822    38286.804 
   82500    294.01121   -1462.0195    435.35494    294.05749    311.25565    38286.804 
   82600    303.29953   -1427.9153    420.05064     354.5813    74.870446    38286.804 
   82700    297.17073   -1444.1829     450.4948    341.22678   -35.901851    38286.804 
   82800    300.42465   -1469.8454     461.2181    340.90448   -569.74302    38286.804 
   82900    292.47415   -1438.2764    460.88084    336.42199   -166.52967    38286.804 
   83000    304.45685   -1465.5311    426.16074    328.27439    241.98594    38286.804 
   83100    296.68574   -1474.9941    416.98877    274.73096    265.18237    38286.804 
   83200    304.43524   -1462.7388    453.85139    358.66028    247.00276    38286.804 
   83300    290.78469   -1463.6487    441.90099    284.48064    96.221698    38286.804 
   83400    295.39861   -1443.1306    457.34367    341.16749    14.741482    38286.804 
   83500    300.35083   -1443.6339    460.18585    365.75216   -34.442467    38286.804 
   83600    315.28375   -1452.2508    462.41087    426.44019   -66.498395    38286.804 
   83700    296.96131   -1450.4924    442.52429    326.00614    514.77278    38286.804 
   83800    301.72675    -1468.643    480.87795    367.61589    49.211524    38286.804 
   83900    298.79825   -1438.6531    446.47833    350.05104   -64.578715    38286.804 
   84000     299.5469   -1470.5487    461.67489    336.71505   -449.37561    38286.804 
   84100    304.87477   -1460.7264    449.52001    358.31566   -486.64824    38286.804 
   84200    293.17678   -1453.1448    436.62151    300.45046   -500.67616    38286.804 
   84300    306.16765   -1435.2755    464.46501    404.51933   -991.50154    38286.804 
   84400    302.33474   -1425.6607    485.07412     417.5255   -376.77906    38286.804 
   84500    294.41345    -1438.191    455.56484    339.90284    64.263599    38286.804 
   84600    291.63256   -1475.9484    458.28129    292.36991   -305.73218    38286.804 
   84700    306.07157   -1448.0165    473.05061    399.93231    22.743371    38286.804 
   84800     304.8903   -1458.9001    472.11994    382.81167    91.338059    38286.804 
   84900    294.08997   -1482.9944    482.18931    320.27077   -61.094352    38286.804 
   85000    309.35963   -1470.3107    463.27245    382.63017    292.35557    38286.804 
   85100    296.92085   -1457.8173     453.2941    329.26921     1.065755    38286.804 
   85200    314.40416    -1457.219    435.28953    390.39941    54.493582    38286.804 
   85300    312.55036   -1445.5761    442.82331     401.2487   -147.57183    38286.804 
   85400    293.84817   -1472.5855     427.2125     274.6167   -608.69692    38286.804 
   85500    304.70409   -1476.2526    446.85345    339.35629   -498.53248    38286.804 
   85600    305.97243   -1484.1758    462.48972     352.7668    123.56616    38286.804 
   85700    310.32952   -1475.4885    447.19613    365.73289    4.6147459    38286.804 
   85800    297.19869    -1478.703     448.3214    304.65894     -130.135    38286.804 
   85900     322.5945   -1459.7999    456.03245    445.35309   -30.991798    38286.804 
   86000    302.41809   -1465.3509    455.06019    348.19577   -124.68878    38286.804 
   86100    298.25854   -1463.1535    463.59165    340.23959    246.49833    38286.804 
   86200    295.05957   -1491.9106    450.04607    283.56688    115.73206    38286.804 
   86300    292.66177    -1451.122    476.90905    340.44735    326.17816    38286.804 
   86400    304.51563   -1487.4732    427.30416    307.73972    484.00741    38286.804 
   86500    308.54127   -1521.1399    432.20182    297.05418    203.44912    38286.804 
   86600    297.77005   -1492.0473    436.41692    281.97675    122.73069    38286.804 
   86700    300.17529   -1484.8463    457.00129    320.56658   -139.79514    38286.804 
   86800    307.42482   -1484.4387    439.14453    335.68292   -132.40283    38286.804 
   86900    302.64031   -1430.0944    439.15381    368.54417   -363.46404    38286.804 
   87000    303.46956   -1508.3918     445.8493    300.66726    305.83081    38286.804 
   87100    300.48453   -1480.9844    457.64498     326.4613    323.06422    38286.804 
   87200    296.14685   -1471.6974    432.19647    290.81463   -33.914545    38286.804 
   87300    296.95143   -1464.1764    460.38927    330.14261    768.68095    38286.804 
   87400    291.59611   -1468.4396     470.7797    312.21334    441.86432    38286.804 
   87500    302.35919   -1486.9113    445.08084     316.3914    374.65338    38286.804 
   87600    294.47228   -1442.6411     453.9389    334.09105   -203.48031    38286.804 
   87700    296.51601   -1460.3107     429.4666    301.12975    158.76466    38286.804 
   87800    307.83286   -1443.8454    437.63275    376.59744    -149.0833    38286.804 
   87900    306.14771   -1412.3167    464.48054    427.40409    522.40116    38286.804 
   88000    301.80212   -1434.0521    469.61025    391.27759    395.74754    38286.804 
   88100    299.46915   -1482.7584    451.63966    314.12087    472.64907    38286.804 
   88200    304.92346   -1470.9808    448.81615    347.57613    797.27202    38286.804 
   88300      296.405   -1513.2628    418.75955    236.97198    355.12489    38286.804 
   88400    303.08726   -1509.9091    458.93208    310.51541    256.51859    38286.804 
   88500    288.38528   -1556.1625    434.44259    173.73006   -90.680752    38286.804 
   88600    304.42004   -1510.7255    429.67093    286.42487    262.90765    38286.804 
   88700     300.2424   -1535.4661    464.12845    277.37544    750.26291    38286.804 
   88800    298.01158   -1533.9519    437.91454    242.65472    587.12868    38286.804 
   88900    299.78332   -1472.3107    466.93432    341.27449    506.62011    38286.804 
   89000     303.9337   -1526.1342    457.20315    296.36366   -35.262579    38286.804 
   89100    296.81052    -1491.527     450.0707    291.84049    293.94319    38286.804 
   89200    305.36591   -1501.5607    441.41714    311.58476   -341.87281    38286.804 
   89300    309.26334   -1509.7809    446.68743    326.14245   -300.08456    38286.804 
   89400    303.96138   -1512.8416    462.63193    315.20938    315.83203    38286.804 
   89500    289.96274   -1479.3552    435.57412    258.75499   -312.89835    38286.804 
   89600    298.62911   -1483.7642    432.23056    289.93244   -792.54954    38286.804 
   89700    308.53292   -1455.8794     483.6364    413.71176   -446.30285    38286.804 
   89800    314.53306   -1417.0805    461.80529    457.63266   -340.60786    38286.804 
   89900    307.67446   -1414.4631      491.042    458.67747   -568.85352    38286.804 
   90000    301.27511    -1464.826    463.09079    351.61691   -787.92146    38286.804 
   90100    298.45264   -1461.0189    446.69597    326.35048   -498.17731    38286.804 
[...]
  983800    305.08356   -1507.9009     521.5414    384.10052    679.75121    38286.804 
  983900    294.01071   -1510.5493    470.81313    280.98369    912.50807    38286.804 
  984000    299.93381   -1528.1933    495.50027    314.63386      691.251    38286.804 
  984100    305.86654   -1548.1839    485.05719    310.85055    206.56305    38286.804 
  984200    299.85139   -1555.4322    466.48233    258.00674    193.18916    38286.804 
  984300    297.34275   -1485.6461    493.06581     343.1073    303.87377    38286.804 
  984400     307.0886   -1448.2987    509.42878    440.59686   -11.974864    38286.804 
  984500    311.38965   -1503.0411    480.43884    376.18519    47.029767    38286.804 
  984600    302.48714   -1515.3782    480.03631     323.4548   -179.88699    38286.804 
  984700     301.0831    -1499.698    467.49419    320.28572   -135.77321    38286.804 
  984800    292.91327   -1462.4317    502.64146    355.99983   -342.23446    38286.804 
  984900    301.75643   -1491.3157    478.34127    342.53987   -116.36923    38286.804 
  985000    297.99751   -1508.1198    485.29166    315.80071   -397.07233    38286.804 
  985100    300.29556    -1470.613    533.33903    411.67794    248.30427    38286.804 
  985200    291.64621   -1469.6481    493.59562     334.0458    368.78565    38286.804 
  985300    294.80495   -1474.0807    499.03947    349.24636    468.35578    38286.804 
  985400    305.47703   -1464.9437    494.36277    401.64651    817.52761    38286.804 
  985500    287.68304   -1425.5201    522.83901    389.61438    532.85539    38286.804 
  985600    298.42505   -1454.9414    497.77694    383.38493    806.15992    38286.804 
  985700    305.81248   -1519.8151    502.36431    356.28358    484.45845    38286.804 
  985800    301.30296   -1500.3385    480.44935    333.58813    962.86108    38286.804 
  985900    304.22763   -1469.4748      482.124    379.26429    687.81459    38286.804 
  986000    291.53278   -1502.0515    484.31849    291.85575    141.69808    38286.804 
  986100    296.86822    -1486.152    503.81803    351.22206     -96.3657    38286.804 
  986200    297.98727   -1506.5927    477.00167    308.99182   -97.165186    38286.804 
  986300    295.42918   -1502.5511    493.41737    317.95801   -356.81999    38286.804 
  986400    303.92201   -1488.0406    500.76646    377.96811   -257.30732    38286.804 
  986500    296.20274   -1522.3138    500.12837     308.3812    -159.0777    38286.804 
  986600    295.59018   -1498.3195    523.78815    353.28365    754.27944    38286.804 
  986700    304.58492    -1512.147    506.25248    362.32557    949.26669    38286.804 
  986800    307.56908   -1524.8886    484.84185    341.57841    690.14588    38286.804 
  986900    302.68464   -1504.9108    484.62341    339.39643   -7.3950763    38286.804 
  987000    301.01704   -1521.8918    481.16258    311.46366   -166.82779    38286.804 
  987100    290.38395   -1477.6069    491.28117    318.10244   -261.21325    38286.804 
  987200    298.47433   -1502.9905    476.01452    313.79483   -604.71223    38286.804 
  987300    295.64939    -1510.796    503.43452    320.71943   -934.60084    38286.804 
  987400    300.01365   -1522.1704    479.05818     304.5733   -676.96869    38286.804 
  987500    301.58186   -1499.1258    497.55844    353.16273   -616.10029    38286.804 
  987600    305.60336   -1527.4821    484.62533    329.93821   -802.45105    38286.804 
  987700    289.58202   -1527.5231    479.88849    253.19118   -383.54092    38286.804 
  987800     310.4881   -1522.7787    453.54404    325.50296   -66.686836    38286.804 
  987900    297.63128   -1504.1032    505.41413    338.29472     203.2407    38286.804 
  988000     297.1144   -1501.6893    487.14286    320.11544    477.46461    38286.804 
  988100    308.84282   -1530.1645    487.60761    344.78996    608.10205    38286.804 
  988200    302.32725   -1534.1548    495.07068    318.99426    697.87038    38286.804 
  988300    299.79771   -1511.9116    514.27204    349.07602    1058.1136    38286.804 
  988400      300.215   -1529.6054    488.58416    307.56878    644.50942    38286.804 
  988500    299.17217   -1525.6915    489.08882     307.3029    492.09607    38286.804 
  988600    300.85611    -1527.901    493.45681    317.02572    312.17044    38286.804 
  988700    297.03024   -1548.7059    496.59236    282.17024    596.86982    38286.804 
  988800    309.22369      -1513.8    461.36104    336.61879   -104.87776    38286.804 
  988900    304.63691   -1524.7253    490.95794    334.68619    287.66133    38286.804 
  989000    288.97623   -1525.9819    476.99461    249.11729     251.1792    38286.804 
  989100    290.30444   -1508.6116    502.74256    298.20193    65.304169    38286.804 
  989200    303.18377   -1524.1008    480.62874    318.45397    373.04674    38286.804 
  989300     306.9301   -1519.7275    474.59268    333.61997    -55.53431    38286.804 
  989400    304.07322   -1523.4299    480.74332    323.23488    121.05621    38286.804 
  989500    292.65342   -1539.4441    509.17966    284.35837      138.746    38286.804 
  989600    301.56901   -1554.1834    492.49102    292.97992   -11.571797    38286.804 
  989700    307.16759   -1532.2538    494.50835    342.07623    1.2864263    38286.804 
  989800     302.1288   -1544.0412    466.14111     279.2869   -417.20253    38286.804 
  989900    300.60487   -1565.2823    494.20724    279.26623   -978.16637    38286.804 
  990000    291.85521   -1527.1047    506.27249    290.20493   -385.02618    38286.804 
  990100    298.30323   -1520.0096    484.72576    304.71832   -266.55194    38286.804 
  990200    298.91937   -1513.2126    519.25643    348.81377   -211.71726    38286.804 
  990300    291.90793   -1488.2788    504.88235    327.87756    143.00212    38286.804 
  990400    311.90351   -1514.6894    469.12727    355.53365    190.89511    38286.804 
  990500    307.76701   -1506.7257     488.6277    364.41624   -56.310578    38286.804 
  990600    307.35823   -1495.3999    473.67918    358.95724    230.24546    38286.804 
  990700    297.33375   -1500.4713    501.91485    337.09079    104.92402    38286.804 
  990800    296.60347   -1551.7264    473.42242    254.06276    156.09152    38286.804 
  990900    301.20272   -1472.8368     493.0095    373.19962    644.69511    38286.804 
  991000    302.75184   -1476.7343    484.85757    368.10893    383.69584    38286.804 
  991100    311.76832   -1529.9532    473.67422    344.20953   -99.311695    38286.804 
  991200    299.23626   -1574.8683    472.96162    242.28675   -92.385837    38286.804 
  991300    298.61674    -1528.284    498.82474    311.95119     -512.447    38286.804 
  991400    297.62153   -1509.4623    494.95094    322.42863    -557.6588    38286.804 
  991500    288.96352   -1486.6277    478.31282    289.73262   -252.99272    38286.804 
  991600    302.49835    -1485.772    475.28766    348.36265   -135.16634    38286.804 
  991700    297.96209   -1498.4604    492.22382    332.23316   -375.96671    38286.804 
  991800    293.65929   -1502.7321     488.1711    304.58022   -425.69854    38286.804 
  991900    299.57303   -1520.0684    500.45946    326.09728   -13.221904    38286.804 
  992000    289.24706   -1505.6879     486.8285    280.46176   -537.27347    38286.804 
  992100    296.96708   -1485.4238    493.35224    341.92849   -193.09247    38286.804 
  992200    308.50376   -1469.1034    469.72459    386.44494    681.35732    38286.804 
  992300    306.31753   -1503.4925    477.30759    349.81813    54.642773    38286.804 
  992400    296.76308   -1468.8787     501.0004    365.20543   -287.35802    38286.804 
  992500     296.2817   -1480.3727    475.66841      326.217   -78.299437    38286.804 
  992600    305.59415   -1501.2553    506.20818    377.70641    63.901955    38286.804 
  992700    303.45155   -1507.8109    472.87141    328.18935    209.88498    38286.804 
  992800    299.34596   -1490.6971    491.17836    345.16744   -165.61626    38286.804 
  992900    296.45258   -1500.9454     511.2353    341.97886    387.99642    38286.804 
  993000    282.91856   -1487.9308    475.49981    258.46206   -135.71292    38286.804 
  993100     304.8313   -1474.6249    486.69447    381.39641   -162.42062    38286.804 
  993200    297.92161   -1500.1071    500.86806    339.04891    415.97355    38286.804 
  993300    307.04564   -1517.2648    483.19273    345.20174     1.112578    38286.804 
  993400    290.46561    -1480.809    482.28448    306.27044    92.719671    38286.804 
  993500      290.312   -1484.9751    467.25266    286.38255    39.077945    38286.804 
  993600    297.34224   -1517.3541     467.2875    285.61877    257.76785    38286.804 
  993700    302.88218   -1538.6981    484.60366    306.47675    173.93865    38286.804 
  993800    296.75731   -1554.7306    475.93015    254.25731    125.26335    38286.804 
  993900    307.00898   -1550.4852    459.55998    288.18392    613.37952    38286.804 
  994000     307.4737   -1493.1713     481.9338    369.95916    171.87995    38286.804 
  994100    299.92323   -1524.0278    474.42407    297.67563    -381.3919    38286.804 
  994200    295.22791   -1562.8193    451.59538    214.96368    -2.855793    38286.804 
  994300     304.9889   -1498.9322    493.69788    364.80041   -223.75848    38286.804 
  994400    294.76916   -1507.8403    466.99175    283.27833    -388.7111    38286.804 
  994500    300.20895   -1499.0722    476.39938    325.89001    -436.3064    38286.804 
  994600    298.91423   -1542.7369     478.9659    278.97584   -383.42851    38286.804 
  994700    296.20429   -1529.8584    455.03891    255.75408   -287.79532    38286.804 
  994800    316.04934   -1519.4942    499.50104    399.72601     107.7488    38286.804 
  994900     305.9711   -1507.2445    491.68029    358.88262    205.35519    38286.804 
  995000    298.51672   -1467.8192    458.72052     331.8625    57.932634    38286.804 
  995100    301.35602   -1429.5227    487.45711    411.65002   -441.45187    38286.804 
  995200    295.11258    -1467.998    491.85765     349.5292   -263.74789    38286.804 
  995300    295.50706   -1520.1437     492.3837    299.68165    -61.21183    38286.804 
  995400    296.51538   -1517.7933    496.27242     310.4501    547.78682    38286.804 
  995500     299.5294   -1511.9214    465.95186    299.54074    367.40214    38286.804 
  995600    301.31838   -1526.9107    501.13085    327.76661    639.26683    38286.804 
  995700    293.73664   -1523.9145    442.91225    238.48648    90.562236    38286.804 
  995800    301.66819   -1525.3578    491.69696    321.45703   -39.295745    38286.804 
  995900    288.37311   -1548.5313    448.69781     195.5618   -834.84553    38286.804 
  996000    298.72505   -1520.8966    482.06922    303.06965    -628.7827    38286.804 
  996100     306.2738    -1558.142    484.72483     302.3895   -190.91423    38286.804 
  996200    296.46509   -1529.9344    448.15322    249.96394     234.1454    38286.804 
  996300    306.17968   -1545.0483     479.0576    309.39315    108.58448    38286.804 
  996400    302.55987   -1475.9248    475.56339    358.76195    74.590863    38286.804 
  996500    312.04889   -1529.4611    494.28008    366.56781    441.44551    38286.804 
  996600    309.53086   -1490.8223    471.44421     371.0595    434.10222    38286.804 
  996700    294.43689   -1523.3482    481.75024    281.03635    294.60515    38286.804 
  996800    294.32245   -1566.5145    473.16889    228.77458    47.210566    38286.804 
  996900    295.32736   -1546.1556    457.88697     238.3657    136.88587    38286.804 
  997000    300.47268   -1546.6469    474.70977    277.81039   -206.21657    38286.804 
  997100    293.55281   -1484.4775    502.06716    336.25253   -399.94055    38286.804 
  997200    298.69185   -1482.3071    464.46189    323.90268    94.969746    38286.804 
  997300    304.92031   -1487.2128    497.67141     380.1853     471.3355    38286.804 
  997400    294.68183   -1508.7898    503.06482    318.00956    690.81896    38286.804 
  997500    289.01103   -1482.3795    461.78598    277.66735   -262.81453    38286.804 
  997600    303.01301   -1486.6263    492.74427    367.27685    402.73404    38286.804 
  997700    298.66622    -1512.933    459.81248    288.51224    -92.14718    38286.804 
  997800    300.82263    -1526.974    483.39111    307.73667    454.12519    38286.804 
  997900    296.19552   -1572.0969    489.65388    248.09118    72.188386    38286.804 
  998000    302.70412   -1540.4925    457.17944    276.45827   -517.31777    38286.804 
  998100    292.28046   -1486.0011    477.62401     304.5703   -513.46241    38286.804 
  998200    300.94387   -1491.8604    469.74071    329.74448   -512.94128    38286.804 
  998300    295.52845   -1516.3607    482.93059    294.10749   -509.00785    38286.804 
  998400    307.15614   -1498.4948    459.73599    341.01134    62.940589    38286.804 
  998500    300.41369   -1483.8239    486.88115    352.53981   -73.211601    38286.804 
  998600    311.43939   -1478.0108    495.09553    416.09558    204.02738    38286.804 
  998700     301.9001   -1478.0127    493.32009    371.46707    255.03126    38286.804 
  998800    296.45203   -1502.5505    457.56919    286.70517   -9.6812991    38286.804 
  998900    307.79312   -1484.3271    461.54415     359.8486    -342.0768    38286.804 
  999000     305.4589   -1507.7951    452.11956    316.47048   -4.4719604    38286.804 
  999100    296.17367   -1490.4926    476.66587     316.6093    464.96403    38286.804 
  999200    304.40829   -1468.2777    462.15499    361.30384     730.4572    38286.804 
  999300    295.32805   -1478.7107    468.16684    316.09363     105.8644    38286.804 
  999400    302.46541   -1538.3987    445.65822    265.95858    89.455208    38286.804 
  999500    312.79319   -1507.9667    502.41746    399.54297    785.12901    38286.804 
  999600     306.2836   -1483.2738    477.62182    370.19864    750.80156    38286.804 
  999700    306.25483   -1478.2126    481.41298    378.92182    7.0687246    38286.804 
  999800    312.11527   -1501.1261    467.20535    368.12617    438.00049    38286.804 
  999900    295.65964   -1507.8938    460.65846    280.89166    261.55932    38286.804 
 1000000    300.23077   -1503.0144    485.51382    331.16028    317.37465    38286.804 
 1000100    306.18409   -1489.5207    452.67402    338.55703    107.94096    38286.804 
 1000200    302.80877   -1483.2032    464.19385    341.23214   -445.40381    38286.804 
 1000300    300.34715   -1496.9089    444.21638    296.49112   -988.29387    38286.804 
 1000400     288.2164    -1487.127    490.03928    297.60359   -549.01312    38286.804 
 1000500    300.04492   -1525.2889    451.58411    274.12125    -439.3567    38286.804 
 1000600    287.21184   -1522.9628    465.18822    232.40418    233.31278    38286.804 
 1000700    302.69283   -1508.6792    480.03366    331.07505     140.3144    38286.804 
 1000800    293.83099   -1503.8962     446.8248    262.84116   -1.4616436    38286.804 
 1000900    308.22505   -1508.2195    471.49435    347.84667    276.08834    38286.804 
 1001000    305.37998   -1511.5204    452.99992    313.27106    673.15692    38286.804 
 1001100    298.56376   -1540.1001    471.92129    272.99371    283.20653    38286.804 
 1001200    298.26575   -1537.1306    476.67635    279.37954    161.96294    38286.804 
 1001300    298.47405   -1543.3801    435.59348    232.98292    621.42732    38286.804 
 1001400     295.1629   -1531.2533    468.51391    263.15624    516.00326    38286.804 
 1001500    302.83065   -1474.2756    493.83951    379.90368    109.74364    38286.804 
 1001600    296.63527   -1489.8881    459.68099    302.30247   -658.35682    38286.804 
 1001700    296.35587   -1471.1641     465.5447    325.63513   -654.04625    38286.804 
 1001800    296.38179    -1479.444    480.77531    332.70222   -1054.1653    38286.804 
 1001900    302.55357   -1477.1077    464.59833    346.58567   -1029.2657    38286.804 
 1002000    300.49576   -1474.6216    460.18754    335.41711   -806.88976    38286.804 
 1002100    297.22991   -1480.1522    484.75763    339.78618    408.09694    38286.804 
 1002200    306.55982   -1465.3789    488.12575    399.83835   -152.25457    38286.804 
 1002300    300.66988   -1453.3239    466.67669    363.98612   -87.848571    38286.804 
 1002400    308.17196   -1461.7075    471.15481    393.78066    337.20438    38286.804 
 1002500    295.11336      -1503.6    474.26862    296.34168    240.25611    38286.804 
 1002600    302.09065   -1528.8907    479.43627    307.56123    263.82931    38286.804 
 1002700    301.70516   -1472.0731    486.58761    369.79845    491.91459    38286.804 
 1002800    304.85193   -1432.3348     473.2188    410.30347    387.73146    38286.804 
 1002900    307.53649   -1442.1719    509.18725    448.49413    81.744264    38286.804 
 1003000    300.37201   -1454.0452    448.13403    343.38414   -392.29512    38286.804 
 1003100    298.37186   -1460.6409    492.58383     372.2534    9.9516843    38286.804 
 1003200    299.84474   -1520.6224    467.06719    293.37161   -146.73967    38286.804 
 1003300    301.61458   -1491.9704    460.57886    323.48556    211.49843    38286.804 
 1003400    294.10271   -1487.1962    469.36125    303.29819    436.14401    38286.804 
 1003500    296.02405    -1506.131    471.23002    294.86293    69.814812    38286.804 
 1003600    293.44349   -1473.9153    481.47465    325.73119   -7.5009439    38286.804 
 1003700      293.557   -1507.5911    470.76296    281.85361    420.06668    38286.804 
 1003800    305.89704   -1461.2851    467.71285    380.54195    176.27528    38286.804 
 1003900    295.75323   -1495.3423    484.98399     318.1891   -90.486548    38286.804 
 1004000    294.43216   -1454.2613    469.42137    337.77308    15.537558    38286.804 
 1004100    295.81197    -1462.074    458.89575    325.63297    217.72791    38286.804 
 1004200    302.95653   -1454.5995     484.7471    391.05281   -561.50022    38286.804 
 1004300    311.69146    -1491.501    457.23755    365.87971   -590.55878    38286.804 
 1004400    305.23932   -1527.9627    442.96675    286.16379    62.824868    38286.804 
 1004500     301.0843   -1515.1893    472.07255    309.37824    380.35481    38286.804 
 1004600    297.04349    -1513.972    474.10655    294.47793    243.00911    38286.804 
 1004700    306.90194   -1520.8112    466.18013    323.99723    591.30682    38286.804 
 1004800    293.94353   -1547.5069    454.25861    227.16984   -59.110478    38286.804 
 1004843    314.22198   -1554.0452    456.59206    314.05741   -445.59571    38286.804 
Loop time of 619.822 on 32 procs for 1000000 steps with 1508 atoms

Performance: 139.395 ns/day, 0.172 hours/ns, 1613.366 timesteps/s
100.0% CPU use with 32 MPI tasks x no OpenMP threads

MPI task timing breakdown:
Section |  min time  |  avg time  |  max time  |%varavg| %total
---------------------------------------------------------------
Pair    | 237.31     | 274.88     | 309.39     | 110.6 | 44.35
Bond    | 1.3353     | 1.5152     | 1.6743     |   6.7 |  0.24
Neigh   | 39.689     | 39.768     | 39.834     |   0.8 |  6.42
Comm    | 256.07     | 290.46     | 327.87     | 107.4 | 46.86
Output  | 0.3896     | 0.40722    | 0.8651     |  12.9 |  0.07
Modify  | 9.3501     | 9.6528     | 9.9473     |   5.5 |  1.56
Other   |            | 3.138      |            |       |  0.51

Nlocal:        47.1250 ave          79 max           9 min
Histogram: 2 2 2 3 3 6 5 4 2 3
Nghost:        1922.47 ave        2042 max        1811 min
Histogram: 3 9 1 2 1 0 2 8 4 2
Neighs:        5300.91 ave       10918 max         780 min
Histogram: 2 4 7 3 3 2 5 3 1 2

Total # of neighbors = 169629
Ave neighs/atom = 112.48607
Ave special neighs/atom = 2.0106101
Neighbor list builds = 49583
Dangerous builds = 0
The system volume is 38286.8036580294
Lattice vectors
33.7041234664854 0 0
0 33.7041234664854 0
0 0 33.7041234664854
Total wall time: 0:10:24
