LAMMPS data file
 1509 atoms
 1008 bonds
 513 angles
 12 dihedrals
 0 impropers
 4 atom types
 4 bond types
 2 angle types
 2 dihedral types
 1 improper types
 0 15 xlo xhi
 0 15 ylo yhi
 0 15 zlo zhi
 0 0 0 xy xz yz

# Atom types
#
# 1 C_3
# 2 O_3
# 3 H_
# 4 H__HB

# Bond Coeffs
#
# 1 C_3*C_3
# 2 C_3*H_
# 3 C_3*O_3
# 4 O_3*H__HB

# Angle Coeffs
#
# 1 C_3
# 2 O_3

# Dihedral Coeffs
#
# 1 A1
# 2 A2

# Inversion Coeffs
#
# 1 1

 Masses

 1 12.01
 2 16
 3 1.01
 4 1.01

 Atoms # full

1 1 1 0 -0.3254186619214 4.78036845826649 14.5140066897975
2 1 2 0 -0.00498561132188025 2.40467530915151 14.902277988417
3 1 1 0 0.506335489293707 3.53040044120275 14.1763690759951
4 1 3 0 -0.269425212317937 4.99039273701116 15.5838222794854
5 1 3 0 0.0581330835771103 5.64204962529364 13.9646752006984
6 1 3 0 -1.36955409465155 4.62195751188102 14.2376425637198
7 1 3 0 0.446538233843001 3.3363777402021 13.1026482883892
8 1 3 0 1.54919282413602 3.70565699285445 14.4518953184272
9 1 4 0 0.416926107034534 1.1084575756343 14.9119371410211
10 2 4 0 11.0343539707549 6.21545265818946 6.12580435001291
11 2 2 0 11.9943539707549 6.21545265818946 6.12580435001291
12 2 4 0 12.2343539707549 5.28545265818946 6.12580435001291
13 3 4 0 12.8760915056057 11.3369712784793 7.27498596184887
14 3 2 0 13.8360915056057 11.3369712784793 7.27498596184887
15 3 4 0 14.0760915056057 10.4069712784793 7.27498596184887
16 4 4 0 5.26545592278242 2.53098296391778 0.258984201354906
17 4 2 0 6.22545592278242 2.53098296391778 0.258984201354906
18 4 4 0 6.46545592278242 1.60098296391778 0.258984201354906
19 5 4 0 9.23480259996839 0.70228045498021 12.7301774534862
20 5 2 0 10.1948025999684 0.70228045498021 12.7301774534862
21 5 4 0 10.4348025999684 -0.227719545019791 12.7301774534862
22 6 4 0 7.64229151929729 14.7282962167542 7.33273064950481
23 6 2 0 8.60229151929729 14.7282962167542 7.33273064950481
24 6 4 0 8.84229151929729 13.7982962167542 7.33273064950481
25 7 4 0 10.6810904508177 11.4798413034901 14.2303683003411
26 7 2 0 11.6410904508177 11.4798413034901 14.2303683003411
27 7 4 0 11.8810904508177 10.5498413034901 14.2303683003411
28 8 4 0 6.86501414791681 7.35569899011403 5.76672973693348
29 8 2 0 7.82501414791681 7.35569899011403 5.76672973693348
30 8 4 0 8.06501414791681 6.42569899011403 5.76672973693348
31 9 4 0 5.86541300450452 1.97801805142313 2.13399544009008
32 9 2 0 6.82541300450452 1.97801805142313 2.13399544009008
33 9 4 0 7.06541300450452 1.04801805142313 2.13399544009008
34 10 4 0 12.043879308477 7.29323850752786 2.45091559365392
35 10 2 0 13.003879308477 7.29323850752786 2.45091559365392
36 10 4 0 13.243879308477 6.36323850752786 2.45091559365392
37 11 4 0 6.64402888898738 12.8971000357438 13.964799499372
38 11 2 0 7.60402888898738 12.8971000357438 13.964799499372
39 11 4 0 7.84402888898738 11.9671000357438 13.964799499372
40 12 4 0 -0.374924321221188 0.76191629556939 1.20554870227352
41 12 2 0 0.585075678778812 0.76191629556939 1.20554870227352
42 12 4 0 0.825075678778812 -0.16808370443061 1.20554870227352
43 13 4 0 6.03388169009239 14.9155719582364 13.6563868203666
44 13 2 0 6.99388169009239 14.9155719582364 13.6563868203666
45 13 4 0 7.23388169009239 13.9855719582364 13.6563868203666
46 14 4 0 8.47788401923142 13.8915537720919 2.36901565804146
47 14 2 0 9.43788401923142 13.8915537720919 2.36901565804146
48 14 4 0 9.67788401923142 12.9615537720919 2.36901565804146
49 15 4 0 2.22033182552084 9.50605663861148 9.71576428972185
50 15 2 0 3.18033182552084 9.50605663861148 9.71576428972185
51 15 4 0 3.42033182552084 8.57605663861148 9.71576428972185
52 16 4 0 1.93042791492306 13.3242467666883 1.31548883509822
53 16 2 0 2.89042791492306 13.3242467666883 1.31548883509822
54 16 4 0 3.13042791492306 12.3942467666883 1.31548883509822
55 17 4 0 8.6050446813181 3.14949781674892 4.77817006758414
56 17 2 0 9.5650446813181 3.14949781674892 4.77817006758414
57 17 4 0 9.8050446813181 2.21949781674892 4.77817006758414
58 18 4 0 -0.421248651836067 13.5512128522992 11.0665869014338
59 18 2 0 0.538751348163933 13.5512128522992 11.0665869014338
60 18 4 0 0.778751348163933 12.6212128522992 11.0665869014338
61 19 4 0 13.3165992591251 10.0548805172462 13.3560325624421
62 19 2 0 14.2765992591251 10.0548805172462 13.3560325624421
63 19 4 0 14.5165992591251 9.1248805172462 13.3560325624421
64 20 4 0 2.17661452174187 7.63052004663274 6.99843095149845
65 20 2 0 3.13661452174187 7.63052004663274 6.99843095149845
66 20 4 0 3.37661452174187 6.70052004663274 6.99843095149845
67 21 4 0 13.6515894862544 5.41795930284075 6.03041396127082
68 21 2 0 14.6115894862544 5.41795930284075 6.03041396127082
69 21 4 0 14.8515894862544 4.48795930284075 6.03041396127082
70 22 4 0 9.66066484266892 4.11520296981558 9.92721241316758
71 22 2 0 10.6206648426689 4.11520296981558 9.92721241316758
72 22 4 0 10.8606648426689 3.18520296981558 9.92721241316758
73 23 4 0 9.05256472455338 11.0943087869696 9.71985152922571
74 23 2 0 10.0125647245534 11.0943087869696 9.71985152922571
75 23 4 0 10.2525647245534 10.1643087869696 9.71985152922571
76 24 4 0 4.96876083707437 8.10545998084359 10.0637782202102
77 24 2 0 5.92876083707437 8.10545998084359 10.0637782202102
78 24 4 0 6.16876083707437 7.17545998084359 10.0637782202102
79 25 4 0 9.59356204650365 2.11003165383823 8.74924834119156
80 25 2 0 10.5535620465036 2.11003165383823 8.74924834119156
81 25 4 0 10.7935620465036 1.18003165383823 8.74924834119156
82 26 4 0 12.7710260816105 3.24210525996983 2.28854076121934
83 26 2 0 13.7310260816105 3.24210525996983 2.28854076121934
84 26 4 0 13.9710260816105 2.31210525996983 2.28854076121934
85 27 4 0 10.4447507851012 1.80565530824475 8.1648537016008
86 27 2 0 11.4047507851012 1.80565530824475 8.1648537016008
87 27 4 0 11.6447507851012 0.87565530824475 8.1648537016008
88 28 4 0 10.0029357375763 9.74867581314407 9.55849078833126
89 28 2 0 10.9629357375763 9.74867581314407 9.55849078833126
90 28 4 0 11.2029357375763 8.81867581314407 9.55849078833126
91 29 4 0 1.98597443799488 9.56061737303622 9.10317147150636
92 29 2 0 2.94597443799488 9.56061737303622 9.10317147150636
93 29 4 0 3.18597443799488 8.63061737303622 9.10317147150636
94 30 4 0 0.084505281848833 11.5108054752368 7.38527295878157
95 30 2 0 1.04450528184883 11.5108054752368 7.38527295878157
96 30 4 0 1.28450528184883 10.5808054752368 7.38527295878157
97 31 4 0 4.76757132492028 5.97421444411389 0.306919341674075
98 31 2 0 5.72757132492028 5.97421444411389 0.306919341674075
99 31 4 0 5.96757132492028 5.0442144441139 0.306919341674075
100 32 4 0 12.9572784451023 9.78333130170591 10.5485900281928
101 32 2 0 13.9172784451023 9.78333130170591 10.5485900281928
102 32 4 0 14.1572784451023 8.85333130170591 10.5485900281928
103 33 4 0 -0.217323677642271 14.0293048710469 2.70985824870877
104 33 2 0 0.742676322357729 14.0293048710469 2.70985824870877
105 33 4 0 0.982676322357729 13.0993048710469 2.70985824870877
106 34 4 0 6.14258673202246 14.9646690538526 2.24044322152622
107 34 2 0 7.10258673202246 14.9646690538526 2.24044322152622
108 34 4 0 7.34258673202246 14.0346690538526 2.24044322152622
109 35 4 0 1.09895583984442 11.1112124628294 10.8778683620039
110 35 2 0 2.05895583984442 11.1112124628294 10.8778683620039
111 35 4 0 2.29895583984442 10.1812124628294 10.8778683620039
112 36 4 0 11.7419815684855 8.47483008558862 7.54312893608585
113 36 2 0 12.7019815684855 8.47483008558862 7.54312893608585
114 36 4 0 12.9419815684855 7.54483008558862 7.54312893608585
115 37 4 0 7.13454941214994 14.5800761416927 2.95187701354735
116 37 2 0 8.09454941214994 14.5800761416927 2.95187701354735
117 37 4 0 8.33454941214994 13.6500761416927 2.95187701354735
118 38 4 0 3.11116463315673 3.15476114902645 7.84119814401492
119 38 2 0 4.07116463315673 3.15476114902645 7.84119814401492
120 38 4 0 4.31116463315673 2.22476114902645 7.84119814401492
121 39 4 0 9.59003039097413 8.45019139390439 12.0018082880415
122 39 2 0 10.5500303909741 8.45019139390439 12.0018082880415
123 39 4 0 10.7900303909741 7.52019139390439 12.0018082880415
124 40 4 0 8.73418695104308 11.9595862160809 11.481099750381
125 40 2 0 9.69418695104308 11.9595862160809 11.481099750381
126 40 4 0 9.93418695104308 11.0295862160809 11.481099750381
127 41 4 0 6.54378938416019 9.96020411647856 2.41293843020685
128 41 2 0 7.50378938416019 9.96020411647856 2.41293843020685
129 41 4 0 7.74378938416019 9.03020411647856 2.41293843020685
130 42 4 0 9.19665447014384 11.2096220480185 9.36800963245332
131 42 2 0 10.1566544701438 11.2096220480185 9.36800963245332
132 42 4 0 10.3966544701438 10.2796220480185 9.36800963245332
133 43 4 0 10.820353205055 7.09766073193401 1.56573703279719
134 43 2 0 11.780353205055 7.09766073193401 1.56573703279719
135 43 4 0 12.020353205055 6.16766073193401 1.56573703279719
136 44 4 0 10.7838558770902 6.00093119120225 13.5942518664524
137 44 2 0 11.7438558770902 6.00093119120225 13.5942518664524
138 44 4 0 11.9838558770902 5.07093119120225 13.5942518664524
139 45 4 0 7.53047094142064 8.03545052226633 10.5631737119984
140 45 2 0 8.49047094142064 8.03545052226633 10.5631737119984
141 45 4 0 8.73047094142064 7.10545052226633 10.5631737119984
142 46 4 0 4.04252998108976 2.76550363091752 7.52007548231632
143 46 2 0 5.00252998108976 2.76550363091752 7.52007548231632
144 46 4 0 5.24252998108976 1.83550363091752 7.52007548231632
145 47 4 0 8.79804336626083 11.9893175390922 4.33476188918576
146 47 2 0 9.75804336626083 11.9893175390922 4.33476188918576
147 47 4 0 9.99804336626083 11.0593175390922 4.33476188918576
148 48 4 0 7.38740240151063 8.47395749803633 10.2717266406398
149 48 2 0 8.34740240151063 8.47395749803633 10.2717266406398
150 48 4 0 8.58740240151063 7.54395749803632 10.2717266406398
151 49 4 0 13.790470633395 6.07648368267342 8.9404991758056
152 49 2 0 14.750470633395 6.07648368267342 8.9404991758056
153 49 4 0 14.990470633395 5.14648368267342 8.9404991758056
154 50 4 0 9.74543029602617 3.10276421875693 4.4976330420468
155 50 2 0 10.7054302960262 3.10276421875693 4.4976330420468
156 50 4 0 10.9454302960262 2.17276421875693 4.4976330420468
157 51 4 0 13.7319039115403 11.6947807305865 6.68569471221417
158 51 2 0 14.6919039115403 11.6947807305865 6.68569471221417
159 51 4 0 14.9319039115403 10.7647807305865 6.68569471221417
160 52 4 0 11.8042792395875 5.90450247674249 5.16402771463618
161 52 2 0 12.7642792395875 5.90450247674249 5.16402771463618
162 52 4 0 13.0042792395875 4.97450247674249 5.16402771463618
163 53 4 0 3.79703210128471 10.9438323943783 2.9519841412548
164 53 2 0 4.75703210128471 10.9438323943783 2.9519841412548
165 53 4 0 4.99703210128471 10.0138323943783 2.9519841412548
166 54 4 0 6.29979297911748 1.88848030910827 3.98415602277964
167 54 2 0 7.25979297911748 1.88848030910827 3.98415602277964
168 54 4 0 7.49979297911748 0.958480309108272 3.98415602277964
169 55 4 0 4.86994429302402 10.322865178287 8.89236175222322
170 55 2 0 5.82994429302402 10.322865178287 8.89236175222322
171 55 4 0 6.06994429302402 9.39286517828703 8.89236175222322
172 56 4 0 7.49401556488127 11.2083554830775 9.27182438084856
173 56 2 0 8.45401556488127 11.2083554830775 9.27182438084856
174 56 4 0 8.69401556488127 10.2783554830775 9.27182438084856
175 57 4 0 7.2289659180399 11.141584117841 3.90841960790567
176 57 2 0 8.1889659180399 11.141584117841 3.90841960790567
177 57 4 0 8.4289659180399 10.211584117841 3.90841960790567
178 58 4 0 13.5283798472676 2.12054517626762 2.48791658319533
179 58 2 0 14.4883798472676 2.12054517626762 2.48791658319533
180 58 4 0 14.7283798472676 1.19054517626762 2.48791658319533
181 59 4 0 14.0973891264014 6.7703482442908 0.45900478027761
182 59 2 0 15.0573891264014 6.7703482442908 0.45900478027761
183 59 4 0 15.2973891264014 5.8403482442908 0.45900478027761
184 60 4 0 5.3174271729961 11.5117196335364 5.90523138991557
185 60 2 0 6.2774271729961 11.5117196335364 5.90523138991557
186 60 4 0 6.5174271729961 10.5817196335364 5.90523138991557
187 61 4 0 2.56804614488035 2.48029810184613 9.04116599704139
188 61 2 0 3.52804614488035 2.48029810184613 9.04116599704139
189 61 4 0 3.76804614488035 1.55029810184613 9.04116599704139
190 62 4 0 8.12646393125877 13.0522821614891 2.32049700454809
191 62 2 0 9.08646393125877 13.0522821614891 2.32049700454809
192 62 4 0 9.32646393125877 12.1222821614891 2.32049700454809
193 63 4 0 6.9397728766501 14.1278276119288 10.2071888605133
194 63 2 0 7.8997728766501 14.1278276119288 10.2071888605133
195 63 4 0 8.1397728766501 13.1978276119288 10.2071888605133
196 64 4 0 13.9737033813447 14.0606937363651 6.18077703402378
197 64 2 0 14.9337033813447 14.0606937363651 6.18077703402378
198 64 4 0 15.1737033813447 13.1306937363651 6.18077703402378
199 65 4 0 13.5871984034032 13.1427113052364 8.74271320528351
200 65 2 0 14.5471984034032 13.1427113052364 8.74271320528351
201 65 4 0 14.7871984034032 12.2127113052364 8.74271320528351
202 66 4 0 3.83234658555128 1.88364173675887 2.99076974974014
203 66 2 0 4.79234658555128 1.88364173675887 2.99076974974014
204 66 4 0 5.03234658555128 0.953641736758873 2.99076974974014
205 67 4 0 9.82271448170766 1.20049011352472 1.4581757853739
206 67 2 0 10.7827144817077 1.20049011352472 1.4581757853739
207 67 4 0 11.0227144817077 0.27049011352472 1.4581757853739
208 68 4 0 13.3449727417622 13.4112652686331 3.15977008198388
209 68 2 0 14.3049727417622 13.4112652686331 3.15977008198388
210 68 4 0 14.5449727417622 12.4812652686331 3.15977008198388
211 69 4 0 0.57316097125411 3.98362642777152 1.56384479021654
212 69 2 0 1.53316097125411 3.98362642777152 1.56384479021654
213 69 4 0 1.77316097125411 3.05362642777152 1.56384479021654
214 70 4 0 7.87661213471554 12.9500253002066 5.10274252155796
215 70 2 0 8.83661213471554 12.9500253002066 5.10274252155796
216 70 4 0 9.07661213471554 12.0200253002066 5.10274252155796
217 71 4 0 12.2922384312563 2.05738771049306 1.73502800054848
218 71 2 0 13.2522384312563 2.05738771049306 1.73502800054848
219 71 4 0 13.4922384312563 1.12738771049306 1.73502800054848
220 72 4 0 -0.133653215160593 1.30910064600408 9.06719669583254
221 72 2 0 0.826346784839407 1.30910064600408 9.06719669583254
222 72 4 0 1.06634678483941 0.379100646004081 9.06719669583254
223 73 4 0 9.80079393644817 12.3605887712352 5.98679469781928
224 73 2 0 10.7607939364482 12.3605887712352 5.98679469781928
225 73 4 0 11.0007939364482 11.4305887712352 5.98679469781928
226 74 4 0 5.42843299845234 6.35555128724314 0.328558611217886
227 74 2 0 6.38843299845234 6.35555128724314 0.328558611217886
228 74 4 0 6.62843299845234 5.42555128724314 0.328558611217886
229 75 4 0 2.74071987762116 11.8776682838239 6.43207937129773
230 75 2 0 3.70071987762116 11.8776682838239 6.43207937129773
231 75 4 0 3.94071987762116 10.9476682838239 6.43207937129773
232 76 4 0 12.0041946640424 13.4979934808239 6.72762383823283
233 76 2 0 12.9641946640424 13.4979934808239 6.72762383823283
234 76 4 0 13.2041946640424 12.5679934808239 6.72762383823283
235 77 4 0 5.15971643311903 2.96333358896896 13.693530386081
236 77 2 0 6.11971643311903 2.96333358896896 13.693530386081
237 77 4 0 6.35971643311903 2.03333358896896 13.693530386081
238 78 4 0 11.8067971004359 10.7671951704565 2.76060895412229
239 78 2 0 12.7667971004359 10.7671951704565 2.76060895412229
240 78 4 0 13.0067971004359 9.83719517045654 2.76060895412229
241 79 4 0 13.7826531256735 7.14127407217398 14.5161193516105
242 79 2 0 14.7426531256735 7.14127407217398 14.5161193516105
243 79 4 0 14.9826531256735 6.21127407217398 14.5161193516105
244 80 4 0 0.642146004103124 12.6298129970115 3.92787027172744
245 80 2 0 1.60214600410312 12.6298129970115 3.92787027172744
246 80 4 0 1.84214600410312 11.6998129970115 3.92787027172744
247 81 4 0 3.12612495079637 8.23762650060467 13.794750632951
248 81 2 0 4.08612495079637 8.23762650060467 13.794750632951
249 81 4 0 4.32612495079637 7.30762650060467 13.794750632951
250 82 4 0 11.8049151221942 8.05003224330954 10.0993434002157
251 82 2 0 12.7649151221942 8.05003224330954 10.0993434002157
252 82 4 0 13.0049151221942 7.12003224330954 10.0993434002157
253 83 4 0 2.88311162425205 9.29426149040461 13.1901651166845
254 83 2 0 3.84311162425205 9.29426149040461 13.1901651166845
255 83 4 0 4.08311162425205 8.36426149040461 13.1901651166845
256 84 4 0 7.63502201342024 2.85873352125287 7.29540540953167
257 84 2 0 8.59502201342024 2.85873352125287 7.29540540953167
258 84 4 0 8.83502201342024 1.92873352125287 7.29540540953167
259 85 4 0 -0.59893822370097 14.3530380415637 5.2314521803055
260 85 2 0 0.36106177629903 14.3530380415637 5.2314521803055
261 85 4 0 0.60106177629903 13.4230380415637 5.2314521803055
262 86 4 0 13.2856690271012 6.11380562227219 7.49109232099727
263 86 2 0 14.2456690271012 6.11380562227219 7.49109232099727
264 86 4 0 14.4856690271012 5.18380562227219 7.49109232099727
265 87 4 0 4.28688851578161 3.07840090053156 3.79532384569757
266 87 2 0 5.24688851578161 3.07840090053156 3.79532384569757
267 87 4 0 5.48688851578161 2.14840090053156 3.79532384569757
268 88 4 0 5.08038046231493 14.0986812828947 12.1835301630199
269 88 2 0 6.04038046231493 14.0986812828947 12.1835301630199
270 88 4 0 6.28038046231493 13.1686812828947 12.1835301630199
271 89 4 0 8.98506348414347 12.2211229025293 10.6819307547994
272 89 2 0 9.94506348414347 12.2211229025293 10.6819307547994
273 89 4 0 10.1850634841435 11.2911229025293 10.6819307547994
274 90 4 0 5.06290989738889 9.04786678886972 12.3748545174021
275 90 2 0 6.02290989738889 9.04786678886972 12.3748545174021
276 90 4 0 6.26290989738889 8.11786678886972 12.3748545174021
277 91 4 0 0.347526417318732 14.86575791304 8.58844220289029
278 91 2 0 1.30752641731873 14.86575791304 8.58844220289029
279 91 4 0 1.54752641731873 13.93575791304 8.58844220289029
280 92 4 0 12.7897773035523 10.1035321950354 7.30392478290014
281 92 2 0 13.7497773035523 10.1035321950354 7.30392478290014
282 92 4 0 13.9897773035523 9.17353219503537 7.30392478290014
283 93 4 0 11.5502961706091 13.5846731478255 6.33352524018846
284 93 2 0 12.5102961706091 13.5846731478255 6.33352524018846
285 93 4 0 12.7502961706091 12.6546731478255 6.33352524018846
286 94 4 0 1.87603412356228 5.89748322655447 6.04920521029271
287 94 2 0 2.83603412356228 5.89748322655447 6.04920521029271
288 94 4 0 3.07603412356228 4.96748322655447 6.04920521029271
289 95 4 0 11.2541864770185 6.774479775168 12.7356817864347
290 95 2 0 12.2141864770185 6.774479775168 12.7356817864347
291 95 4 0 12.4541864770185 5.844479775168 12.7356817864347
292 96 4 0 6.15190383207053 7.25152564858086 12.0573613804299
293 96 2 0 7.11190383207053 7.25152564858086 12.0573613804299
294 96 4 0 7.35190383207053 6.32152564858086 12.0573613804299
295 97 4 0 10.1590596609469 10.9158230320923 4.07541603315622
296 97 2 0 11.119059660947 10.9158230320923 4.07541603315622
297 97 4 0 11.359059660947 9.9858230320923 4.07541603315622
298 98 4 0 9.82121257388033 6.40052724204957 12.2859760082792
299 98 2 0 10.7812125738803 6.40052724204957 12.2859760082792
300 98 4 0 11.0212125738803 5.47052724204957 12.2859760082792
301 99 4 0 11.5263783400599 0.896447919486091 0.896519761299714
302 99 2 0 12.4863783400599 0.896447919486091 0.896519761299714
303 99 4 0 12.7263783400599 -0.0335520805139095 0.896519761299714
304 100 4 0 10.0403861368261 13.2649132334068 0.889582318486646
305 100 2 0 11.0003861368261 13.2649132334068 0.889582318486646
306 100 4 0 11.2403861368261 12.3349132334068 0.889582318486646
307 101 4 0 7.13067477612756 4.76600809180178 14.9789310211781
308 101 2 0 8.09067477612756 4.76600809180178 14.9789310211781
309 101 4 0 8.33067477612756 3.83600809180178 14.9789310211781
310 102 4 0 0.445846546646208 4.57851708558388 0.957399574108422
311 102 2 0 1.40584654664621 4.57851708558388 0.957399574108422
312 102 4 0 1.64584654664621 3.64851708558388 0.957399574108422
313 103 4 0 4.18643515018746 4.16221033473499 2.21179651329294
314 103 2 0 5.14643515018746 4.16221033473499 2.21179651329294
315 103 4 0 5.38643515018746 3.23221033473499 2.21179651329294
316 104 4 0 13.2023577571101 5.01564427087083 4.27221131161787
317 104 2 0 14.1623577571101 5.01564427087083 4.27221131161787
318 104 4 0 14.4023577571101 4.08564427087083 4.27221131161787
319 105 4 0 1.46070503789932 11.087582093142 13.3975936146453
320 105 2 0 2.42070503789932 11.087582093142 13.3975936146453
321 105 4 0 2.66070503789932 10.157582093142 13.3975936146453
322 106 4 0 -0.427071161828935 6.4415725906752 14.6581596380565
323 106 2 0 0.532928838171065 6.4415725906752 14.6581596380565
324 106 4 0 0.772928838171065 5.5115725906752 14.6581596380565
325 107 4 0 6.84285268580541 12.1490694644768 7.35684259445406
326 107 2 0 7.80285268580541 12.1490694644768 7.35684259445406
327 107 4 0 8.04285268580541 11.2190694644768 7.35684259445406
328 108 4 0 -0.0881446427945047 8.79823764012195 7.42524264380336
329 108 2 0 0.871855357205495 8.79823764012195 7.42524264380336
330 108 4 0 1.1118553572055 7.86823764012195 7.42524264380336
331 109 4 0 12.1392243266758 13.7304634383786 4.766095073428
332 109 2 0 13.0992243266758 13.7304634383786 4.766095073428
333 109 4 0 13.3392243266758 12.8004634383786 4.766095073428
334 110 4 0 6.30905307873152 6.79220143048093 2.95948663610034
335 110 2 0 7.26905307873152 6.79220143048093 2.95948663610034
336 110 4 0 7.50905307873152 5.86220143048093 2.95948663610034
337 111 4 0 8.53286577665247 13.3033690524194 6.69140252633952
338 111 2 0 9.49286577665247 13.3033690524194 6.69140252633952
339 111 4 0 9.73286577665247 12.3733690524194 6.69140252633952
340 112 4 0 5.90615655222908 15.0133808683045 12.536199032329
341 112 2 0 6.86615655222908 15.0133808683045 12.536199032329
342 112 4 0 7.10615655222908 14.0833808683045 12.536199032329
343 113 4 0 6.65738313619047 12.4238203714509 11.3834260299336
344 113 2 0 7.61738313619047 12.4238203714509 11.3834260299336
345 113 4 0 7.85738313619047 11.4938203714509 11.3834260299336
346 114 4 0 5.98500278938562 11.7288771008048 3.29356361646205
347 114 2 0 6.94500278938562 11.7288771008048 3.29356361646205
348 114 4 0 7.18500278938562 10.7988771008048 3.29356361646205
349 115 4 0 6.33588654032908 8.95456183160655 12.2052767802961
350 115 2 0 7.29588654032908 8.95456183160655 12.2052767802961
351 115 4 0 7.53588654032908 8.02456183160655 12.2052767802961
352 116 4 0 4.97166251225397 2.931240678709 10.589869057294
353 116 2 0 5.93166251225397 2.931240678709 10.589869057294
354 116 4 0 6.17166251225397 2.001240678709 10.589869057294
355 117 4 0 1.29581118511967 8.83099095005542 4.51402038219385
356 117 2 0 2.25581118511967 8.83099095005542 4.51402038219385
357 117 4 0 2.49581118511967 7.90099095005542 4.51402038219385
358 118 4 0 8.83422373255715 6.48251265561208 9.90176044637337
359 118 2 0 9.79422373255715 6.48251265561208 9.90176044637337
360 118 4 0 10.0342237325571 5.55251265561208 9.90176044637337
361 119 4 0 0.733149615554139 8.39656082721427 10.3354773111641
362 119 2 0 1.69314961555414 8.39656082721427 10.3354773111641
363 119 4 0 1.93314961555414 7.46656082721427 10.3354773111641
364 120 4 0 13.543086640276 12.0273153150361 5.38514324929565
365 120 2 0 14.503086640276 12.0273153150361 5.38514324929565
366 120 4 0 14.743086640276 11.0973153150361 5.38514324929565
367 121 4 0 -0.355526390047744 0.901022339649499 4.54962407005951
368 121 2 0 0.604473609952256 0.901022339649499 4.54962407005951
369 121 4 0 0.844473609952256 -0.0289776603505016 4.54962407005951
370 122 4 0 13.4592772093322 10.3151249412354 0.875431245658547
371 122 2 0 14.4192772093322 10.3151249412354 0.875431245658547
372 122 4 0 14.6592772093322 9.38512494123541 0.875431245658547
373 123 4 0 4.40983176042326 12.654006592175 4.61233372916467
374 123 2 0 5.36983176042326 12.654006592175 4.61233372916467
375 123 4 0 5.60983176042326 11.724006592175 4.61233372916467
376 124 4 0 2.28221486832015 11.6487042458635 8.18804071750492
377 124 2 0 3.24221486832015 11.6487042458635 8.18804071750492
378 124 4 0 3.48221486832015 10.7187042458635 8.18804071750492
379 125 4 0 9.09626905035227 5.56118283461779 6.82048345450312
380 125 2 0 10.0562690503523 5.56118283461779 6.82048345450312
381 125 4 0 10.2962690503523 4.63118283461779 6.82048345450312
382 126 4 0 6.92958389801905 2.28998553048819 11.9697413756512
383 126 2 0 7.88958389801905 2.28998553048819 11.9697413756512
384 126 4 0 8.12958389801905 1.35998553048819 11.9697413756512
385 127 4 0 4.77839132814668 8.12015881453641 5.50505404360592
386 127 2 0 5.73839132814668 8.12015881453641 5.50505404360592
387 127 4 0 5.97839132814668 7.19015881453641 5.50505404360592
388 128 4 0 12.6401295284461 10.3521109516174 12.1440278878435
389 128 2 0 13.6001295284461 10.3521109516174 12.1440278878435
390 128 4 0 13.8401295284461 9.42211095161736 12.1440278878435
391 129 4 0 1.24004653698765 9.41668911528774 10.5063967604656
392 129 2 0 2.20004653698765 9.41668911528774 10.5063967604656
393 129 4 0 2.44004653698765 8.48668911528774 10.5063967604656
394 130 4 0 9.55231490355916 10.2521376734972 10.1589695527218
395 130 2 0 10.5123149035592 10.2521376734972 10.1589695527218
396 130 4 0 10.7523149035592 9.3221376734972 10.1589695527218
397 131 4 0 13.5107123320643 2.18442678608932 7.86068876506761
398 131 2 0 14.4707123320643 2.18442678608932 7.86068876506761
399 131 4 0 14.7107123320643 1.25442678608932 7.86068876506761
400 132 4 0 6.55032413589768 3.95563541486859 8.07020968291909
401 132 2 0 7.51032413589768 3.95563541486859 8.07020968291909
402 132 4 0 7.75032413589768 3.02563541486859 8.07020968291909
403 133 4 0 6.9560155975353 11.1641788475122 1.34979427442886
404 133 2 0 7.9160155975353 11.1641788475122 1.34979427442886
405 133 4 0 8.1560155975353 10.2341788475122 1.34979427442886
406 134 4 0 0.627945121815428 13.3753567065019 1.61153870285489
407 134 2 0 1.58794512181543 13.3753567065019 1.61153870285489
408 134 4 0 1.82794512181543 12.4453567065019 1.61153870285489
409 135 4 0 12.715231653275 2.93251550680958 7.6081192761194
410 135 2 0 13.675231653275 2.93251550680958 7.6081192761194
411 135 4 0 13.915231653275 2.00251550680958 7.6081192761194
412 136 4 0 0.482078531496227 10.1881866405625 10.2888042689301
413 136 2 0 1.44207853149623 10.1881866405625 10.2888042689301
414 136 4 0 1.68207853149623 9.25818664056249 10.2888042689301
415 137 4 0 9.06792348294519 7.27721648215316 4.08739736652933
416 137 2 0 10.0279234829452 7.27721648215316 4.08739736652933
417 137 4 0 10.2679234829452 6.34721648215316 4.08739736652933
418 138 4 0 2.45344839102589 10.3132175832894 7.72971718339249
419 138 2 0 3.41344839102589 10.3132175832894 7.72971718339249
420 138 4 0 3.65344839102589 9.38321758328937 7.72971718339249
421 139 4 0 9.10507931767031 7.72786368424073 10.7938132819254
422 139 2 0 10.0650793176703 7.72786368424073 10.7938132819254
423 139 4 0 10.3050793176703 6.79786368424073 10.7938132819254
424 140 4 0 4.2325140482001 2.03796294675209 13.4806231339462
425 140 2 0 5.1925140482001 2.03796294675209 13.4806231339462
426 140 4 0 5.4325140482001 1.10796294675209 13.4806231339462
427 141 4 0 5.4408493316453 10.2043299485836 10.4692018905189
428 141 2 0 6.4008493316453 10.2043299485836 10.4692018905189
429 141 4 0 6.6408493316453 9.27432994858362 10.4692018905189
430 142 4 0 8.44824068874121 4.37769250053912 10.2775198838208
431 142 2 0 9.40824068874121 4.37769250053912 10.2775198838208
432 142 4 0 9.64824068874121 3.44769250053912 10.2775198838208
433 143 4 0 0.703903960967436 10.5542706900183 13.7879789667204
434 143 2 0 1.66390396096744 10.5542706900183 13.7879789667204
435 143 4 0 1.90390396096744 9.62427069001831 13.7879789667204
436 144 4 0 0.719436381915584 12.4692162840534 3.69611771777272
437 144 2 0 1.67943638191558 12.4692162840534 3.69611771777272
438 144 4 0 1.91943638191558 11.5392162840534 3.69611771777272
439 145 4 0 13.8945346015692 13.0622609115113 11.7875430698041
440 145 2 0 14.8545346015692 13.0622609115113 11.7875430698041
441 145 4 0 15.0945346015692 12.1322609115113 11.7875430698041
442 146 4 0 13.5652708208375 5.48741378862411 4.60993558634073
443 146 2 0 14.5252708208375 5.48741378862411 4.60993558634073
444 146 4 0 14.7652708208375 4.55741378862411 4.60993558634073
445 147 4 0 7.08678111012094 6.70894876745529 9.73625279031694
446 147 2 0 8.04678111012094 6.70894876745529 9.73625279031694
447 147 4 0 8.28678111012094 5.77894876745529 9.73625279031694
448 148 4 0 0.909461342236027 5.53711429046467 11.4155034546275
449 148 2 0 1.86946134223603 5.53711429046467 11.4155034546275
450 148 4 0 2.10946134223603 4.60711429046467 11.4155034546275
451 149 4 0 9.74635699924082 2.66990666318685 4.87653507851064
452 149 2 0 10.7063569992408 2.66990666318685 4.87653507851064
453 149 4 0 10.9463569992408 1.73990666318685 4.87653507851064
454 150 4 0 10.7615651730169 5.88378473109566 7.45615827385336
455 150 2 0 11.7215651730169 5.88378473109566 7.45615827385336
456 150 4 0 11.9615651730169 4.95378473109566 7.45615827385336
457 151 4 0 8.47043731293641 10.0787684732955 6.01398270344362
458 151 2 0 9.43043731293641 10.0787684732955 6.01398270344362
459 151 4 0 9.67043731293641 9.1487684732955 6.01398270344362
460 152 4 0 11.8258645750768 12.2091143663879 9.0189281234052
461 152 2 0 12.7858645750768 12.2091143663879 9.0189281234052
462 152 4 0 13.0258645750768 11.2791143663879 9.0189281234052
463 153 4 0 4.28023937551305 15.1303631758224 13.5959642264061
464 153 2 0 5.24023937551305 15.1303631758224 13.5959642264061
465 153 4 0 5.48023937551305 14.2003631758224 13.5959642264061
466 154 4 0 4.68158933610655 15.2938177999482 11.3487759092823
467 154 2 0 5.64158933610655 15.2938177999482 11.3487759092823
468 154 4 0 5.88158933610655 14.3638177999482 11.3487759092823
469 155 4 0 13.3298849074356 4.13429315941408 6.96115506347269
470 155 2 0 14.2898849074356 4.13429315941408 6.96115506347269
471 155 4 0 14.5298849074356 3.20429315941408 6.96115506347269
472 156 4 0 3.21284489982761 11.9367152607907 4.72459061653353
473 156 2 0 4.17284489982761 11.9367152607907 4.72459061653353
474 156 4 0 4.41284489982761 11.0067152607907 4.72459061653353
475 157 4 0 -0.387779167648405 11.5160524139088 1.98724381858483
476 157 2 0 0.572220832351595 11.5160524139088 1.98724381858483