LAMMPS (29 Sep 2021 - Update 1)
# Test LAMMPS input file for single DeFDe

# Initialize simulation

clear

units real
atom_style full
boundary p p p
dielectric 1
special_bonds dreiding

bond_style harmonic
angle_style harmonic
dihedral_style harmonic
improper_style umbrella
pair_style hybrid/overlay hbond/dreiding/lj 4 9.0 11.0 90 lj/cut 8.50000

# Read data file
read_data frag5.dat
Reading data file ...
  triclinic box = (0.0000000 0.0000000 0.0000000) to (15.000000 15.000000 15.000000) with tilt (0.0000000 0.0000000 0.0000000)
  2 by 4 by 4 MPI processor grid
  reading atoms ...
  1509 atoms
  scanning bonds ...
  4 = max bonds/atom
  scanning angles ...
  6 = max angles/atom
  scanning dihedrals ...
  9 = max dihedrals/atom
  reading bonds ...
  1008 bonds
  reading angles ...
  513 angles
  reading dihedrals ...
  12 dihedrals
Finding 1-2 1-3 1-4 neighbors ...
  special bond factors lj:    0        0        1       
  special bond factors coul:  0        0        1       
     4 = max # of 1-2 neighbors
     4 = max # of 1-3 neighbors
     8 = max # of special neighbors
  special bonds CPU = 0.002 seconds
  read_data CPU = 0.017 seconds

# Dreiding potential information

bond_coeff 1 350 1.53
bond_coeff 2 350 1.09
bond_coeff 3 350 1.42
bond_coeff 4 350 0.98

angle_coeff 1 50 109.471
angle_coeff 2 50 104.51

dihedral_coeff 1 0.111111111111111 -1 3
dihedral_coeff 2 0.333333333333333 -1 3

improper_coeff 1 40 0

pair_coeff 1 1 lj/cut 0.0951 3.8983
pair_coeff 1 2 lj/cut 0.0953995283007206 3.64309650983885
pair_coeff 1 3 lj/cut 0.0380199947396104 3.52917391183829
pair_coeff 1 4 lj/cut 0.00308382878902186 3.52806914614779
pair_coeff 2 2 lj/cut 0.0957 3.4046
pair_coeff 2 3 lj/cut 0.0381397430510485 3.29813538230316
pair_coeff 2 4 lj/cut 0.0030935416596516 3.29710294046152
pair_coeff 3 3 lj/cut 0.0152 3.195
pair_coeff 3 4 lj/cut 0.0012328828005938 3.19399984345648
pair_coeff 4 4 lj/cut 1e-04 3.193
pair_coeff 2 2 hbond/dreiding/lj 4 j 9.50 2.75 4 9.0 11.0 90

neighbor 2 bin
neigh_modify every 2 one 10000

# Gemoetric relaxation
fix 1 all box/relax iso 1.0 vmax 0.001
minimize 1.0e-4 1.0e-6 10000 10000
WARNING: Using 'neigh_modify every 1 delay 0 check yes' setting during minimization (../min.cpp:188)
Neighbor list info ...
  update every 1 steps, delay 0 steps, check yes
  max neighbors/atom: 10000, page size: 100000
  master list distance cutoff = 13
  ghost atom cutoff = 13
  binsize = 6.5, bins = 3 3 3
  3 neighbor lists, perpetual/occasional/extra = 3 0 0
  (1) pair hbond/dreiding/lj, perpetual, skip from (3)
      attributes: full, newton on
      pair build: skip
      stencil: none
      bin: none
  (2) pair lj/cut, perpetual, half/full from (3)
      attributes: half, newton on
      pair build: halffull/newton
      stencil: none
      bin: none
  (3) neighbor class addition, perpetual
      attributes: full, newton on
      pair build: full/bin
      stencil: full/bin/3d
      bin: standard
Per MPI rank memory allocation (min/avg/max) = 14.03 | 14.35 | 14.77 Mbytes
Step Temp E_pair E_mol TotEng Press Volume 
       0            0 1.1174733e+19    202.02275 1.1174733e+19 9.0812885e+20         3375 
    5383            0   -979.89634    20.271455   -959.62488    101.33365      39457.2 
Loop time of 4.39318 on 32 procs for 5383 steps with 1509 atoms

100.0% CPU use with 32 MPI tasks x no OpenMP threads

Minimization stats:
  Stopping criterion = energy tolerance
  Energy initial, next-to-last, final = 
    1.11747328046285e+19  -959.013841354274  -959.098662967535
  Force two-norm initial, final = 3.1600208e+21 105.73144
  Force max component initial, final = 2.0574338e+21 76.316628
  Final line search alpha, max atom move = 1.5363625e-05 0.0011725001
  Iterations, force evaluations = 5383 5388

MPI task timing breakdown:
Section |  min time  |  avg time  |  max time  |%varavg| %total
---------------------------------------------------------------
Pair    | 1.3101     | 2.5138     | 3.5398     |  36.1 | 57.22
Bond    | 0.0066303  | 0.01099    | 0.018846   |   2.4 |  0.25
Neigh   | 0.091501   | 0.091995   | 0.092332   |   0.1 |  2.09
Comm    | 0.40415    | 1.4331     | 2.6414     |  47.9 | 32.62
Output  | 0          | 0          | 0          |   0.0 |  0.00
Modify  | 0          | 0          | 0          |   0.0 |  0.00
Other   |            | 0.3433     |            |       |  7.81

Nlocal:        47.1562 ave          64 max          25 min
Histogram: 1 0 5 3 5 3 5 4 3 3
Nghost:        1831.97 ave        1881 max        1781 min
Histogram: 4 6 3 3 0 0 1 4 7 4
Neighs:        4574.34 ave        7148 max        2298 min
Histogram: 1 5 2 4 6 4 4 5 0 1

Total # of neighbors = 146379
Ave neighs/atom = 97.003976
Ave special neighs/atom = 2.0159046
Neighbor list builds = 97
Dangerous builds = 0

# MD simulation
velocity all create 300.0 12345 rot yes dist gaussian
timestep 1.0
fix 2 all nvt temp 300.0 300.0 1

# Compute interaction energy
group WAT molecule <> 2 501
1500 atoms in group WAT
group MOL molecule 1
9 atoms in group MOL

compute w WAT group/group MOL pair yes
fix 3 all ave/time 10 5 100 c_w file outa

# Outputs
thermo 100 # Output thermodynamic data every nth step
#dump mf1 all xyz 10000 mol_*.xyz

# Run
run 1000000
Neighbor list info ...
  update every 2 steps, delay 10 steps, check yes
  max neighbors/atom: 10000, page size: 100000
  master list distance cutoff = 13
  ghost atom cutoff = 13
  binsize = 6.5, bins = 6 6 6
  4 neighbor lists, perpetual/occasional/extra = 3 1 0
  (1) pair hbond/dreiding/lj, perpetual, skip from (4)
      attributes: full, newton on
      pair build: skip
      stencil: none
      bin: none
  (2) pair lj/cut, perpetual, half/full from (4)
      attributes: half, newton on
      pair build: halffull/newton
      stencil: none
      bin: none
  (3) compute group/group, occasional, copy from (2)
      attributes: half, newton on
      pair build: copy
      stencil: none
      bin: none
  (4) neighbor class addition, perpetual
      attributes: full, newton on
      pair build: full/bin
      stencil: full/bin/3d
      bin: standard
Per MPI rank memory allocation (min/avg/max) = 12.88 | 12.92 | 13.24 Mbytes
Step Temp E_pair E_mol TotEng Press Volume 
    5383          300   -979.89634    20.271455    388.89358    1663.6302      39457.2 
    5400    302.34361    -919.5943    179.36117    618.82001    342.21343      39457.2 
    5500    297.95483   -1078.7613    216.61406    477.17809    -1125.074      39457.2 
    5600    291.99481   -1073.7064    165.29712    404.12538   -248.44767      39457.2 
    5700    291.12128   -1114.8726    160.40155    354.13697   -106.30607      39457.2 
    5800    300.41496   -1087.2405     198.1579    461.30111    725.50233      39457.2 
    5900    305.61355   -1110.1397    167.15349    430.76551    246.56467      39457.2 
    6000    296.47427   -1116.8637    179.36847    395.17491    628.25384      39457.2 
    6100    312.63698   -1075.3237    166.60979     496.6085    421.85764      39457.2 
    6200    301.94234   -1099.6958    177.80902    435.36261    343.75376      39457.2 
    6300    299.56968   -1038.4334    184.23411    492.38484     690.8991      39457.2 
    6400    303.27724   -1043.9928    168.74451    488.00158    414.44043      39457.2 
    6500    302.19725   -1029.9567    169.00288    497.44145    312.21912      39457.2 
    6600    300.14969   -1045.5927    183.02862    486.62723   -193.78429      39457.2 
    6700    300.05277   -1038.6117    178.90352    489.04752   -173.66974      39457.2 
    6800    301.85007   -1010.4837    176.68968    523.04061    45.831008      39457.2 
    6900    296.89001   -1053.5545    185.77535    466.75971     173.3731      39457.2 
    7000     308.9095   -1041.8124    191.15552    537.91035    395.06825      39457.2 
    7100    307.80468   -1030.7623    190.88388    543.72255    373.03788      39457.2 
    7200    299.23483   -1046.0675    198.32716    497.33863    372.25873      39457.2 
    7300    312.66311   -1037.1192    191.31749    559.63823    320.88558      39457.2 
    7400    294.75829   -1051.2395    194.43921    468.15634     446.9586      39457.2 
    7500    313.17474    -1109.847    193.19449     491.0872    437.25188      39457.2 
    7600    307.93875    -1093.466    192.12607    482.86374    277.88277      39457.2 
    7700    299.11123   -1090.0732    190.96921    445.41938    219.13757      39457.2 
    7800    289.19821    -1113.621     195.1131    381.45588    648.43634      39457.2 
    7900     310.1718   -1111.5466    190.52756    473.22229    678.19484      39457.2 
    8000    297.06683   -1104.4664    203.37082    434.23811    277.13471      39457.2 
    8100    306.26603   -1023.4927    208.69697    561.88892    584.83763      39457.2 
    8200    287.43656   -1052.7684    202.44741    441.72401    612.85658      39457.2 
    8300    304.38868   -1082.8605    219.22807    504.61344    478.63512      39457.2 
    8400    307.13314   -1051.1455    199.64769    529.08457    618.51084      39457.2 
    8500    303.42925   -1050.1883    188.65397     502.3988    336.40179      39457.2 
    8600    297.89019   -1032.0277    197.30097    504.30801    574.16194      39457.2 
    8700    298.62957   -1048.6911    205.67509    499.34226    214.55876      39457.2 
    8800    300.80249   -1051.0654    206.36903    507.42931    327.38039      39457.2 
    8900    296.56508   -1040.4733    202.24892    494.85396   -23.346368      39457.2 
    9000    292.89683   -1069.2254    222.86131     470.2252    231.36427      39457.2 
    9100    298.15298   -1071.4119      216.038    484.84212    386.68767      39457.2 
    9200     294.9956   -1030.6917    216.82493    512.15662    168.72483      39457.2 
    9300     304.1996   -1041.1035    214.61219    540.90464    438.03415      39457.2 
    9400    296.95737   -1049.9623    212.59711    497.47648    661.93663      39457.2 
    9500    288.45329   -1031.6498    214.12427    479.08978    199.89663      39457.2 
    9600    295.53901   -1080.9613     219.8334    467.33817    373.03116      39457.2 
    9700    295.70667   -1068.2025    216.93601    477.95318    351.18152      39457.2 
    9800    292.60841   -1080.4439    226.73195    461.58089    346.90127      39457.2 
    9900    294.44181   -1066.1152    213.39512    470.81392    34.271857      39457.2 
   10000    307.35186   -1044.8265    217.24679    553.98579    463.91197      39457.2 
   10100    315.65832   -1053.7623    242.71162    607.85289   -47.258663      39457.2 
   10200    298.13489    -1052.407    222.14664    509.87435    -146.5319      39457.2 
   10300    310.60488    -1049.693    215.95602    562.45111    48.286252      39457.2 
   10400    311.88371   -1068.7649    225.19739    558.36894   -58.897491      39457.2 
   10500    314.29804   -1051.6618    218.45942    579.58662     18.04666      39457.2 
   10600     295.4935   -1111.9299    214.11417    430.44574    116.33013      39457.2 
   10700    299.13718   -1101.5002    221.71713    464.85695    305.30008      39457.2 
   10800     306.8952   -1101.0142    217.19091    495.68952    44.484688      39457.2 
   10900    297.12078   -1099.6639    235.72849    471.64074   -233.14816      39457.2 
   11000    305.61557   -1031.6507     226.7797    568.88982    51.849443      39457.2 
   11100    298.26584   -1051.8077    222.28191    511.19753    303.13797      39457.2 
   11200    299.10705   -1059.3537    235.75474    520.90561    17.926074      39457.2 
   11300    307.89669   -1058.2452    237.64308    563.41241    722.04345      39457.2 
   11400    308.49671   -1094.6505    232.41524    524.47644    784.46154      39457.2 
   11500     299.3359   -1064.3149    236.53223     517.7506    624.35249      39457.2 
   11600    304.18848   -1069.8039     242.8317    540.37369    531.63923      39457.2 
   11700    291.55335   -1092.2394    237.68427    455.99511    343.72556      39457.2 
   11800    298.62832   -1084.3316    245.40773    503.42884   -39.781587      39457.2 
   11900    294.72833   -1106.6807    243.96085    462.10211   -10.659582      39457.2 
   12000    310.04068   -1090.1414    213.81053    517.32109   -151.88739      39457.2 
   12100    306.48875   -1062.4743    238.04675    553.25828    119.45199      39457.2 
   12200    302.10955   -1113.7229    230.43823    474.71632    257.19089      39457.2 
   12300    293.60439   -1098.7231    238.71377    459.76046    330.54899      39457.2 
   12400    296.41181   -1133.5087    248.50833    447.38899   -31.651642      39457.2 
   12500    298.79475   -1092.7275    238.58157    488.95487     172.5307      39457.2 
   12600    298.94486   -1114.5735    257.92716    487.12921     36.40803      39457.2 
   12700    308.63542   -1105.3927    242.51841     524.4609    439.34574      39457.2 
   12800    288.67061   -1114.9763    250.17602    432.79189    564.39819      39457.2 
   12900    297.70585   -1108.9208     256.1016    485.38686    630.51582      39457.2 
   13000    303.82535   -1124.1984    256.80124    498.31649     907.6458      39457.2 
   13100    310.47946   -1140.4389    259.15681    514.34223    685.20506      39457.2 
   13200    304.03657   -1100.5205    263.67585    529.81848    873.46013      39457.2 
   13300    301.73455    -1135.639    255.99802     476.6744    344.77798      39457.2 
   13400    295.22041   -1129.0014    258.90745    456.94001    622.84455      39457.2 
   13500    311.99494   -1090.7763    262.82336    574.48349    120.07332      39457.2 
   13600      306.231   -1084.6039    250.17661    542.09989   -52.432886      39457.2 
   13700    304.40684   -1129.1375    272.85769    512.04765   -299.71067      39457.2 
   13800    289.35386   -1125.3875    267.30314    442.57906    107.26768      39457.2 
   13900    296.04717   -1093.4982    263.66906    500.92105    102.75013      39457.2 
   14000     314.7767   -1064.9595    255.91785    605.89897    441.90067      39457.2 
   14100    294.23003   -1107.1263    286.49802    501.95379    469.59066      39457.2 
   14200    297.91789   -1086.0033    264.32139    517.47736    616.95011      39457.2 
   14300    302.96269   -1119.6789    271.16693    513.32397    437.38425      39457.2 
   14400    288.52561   -1104.1241    274.77882    467.59508    502.57618      39457.2 
   14500    298.38335   -1105.7908    267.72033    503.18103    267.83009      39457.2 
   14600    303.46044   -1096.7299    282.96642    550.30991     319.8836      39457.2 
   14700    295.55194   -1110.6722    273.83203    491.68401    446.99726      39457.2 
   14800    298.50217   -1111.1563    279.00051    509.62986    4.1956806      39457.2 
   14900    297.14911   -1133.9978    272.72716    474.43287    157.97078      39457.2 
   15000    295.97623   -1139.8275    273.36023    463.96413     318.0056      39457.2 
   15100    304.29102   -1177.7542    261.74049    451.79317    227.35185      39457.2 
   15200    308.24196   -1148.3839    278.67113    515.85382    231.10197      39457.2 
   15300    298.69682   -1126.1239    255.98666     472.5234    5.1141423      39457.2 
   15400    294.29321   -1135.1817    285.52485    473.20927   -230.74731      39457.2 
   15500    298.17394   -1158.2887    270.83416    452.85566   -48.172689      39457.2 
   15600    295.72406    -1169.574    273.99444    433.71827    86.551616      39457.2 
   15700    299.13555   -1176.3799    292.25163    460.50449   -107.62907      39457.2 
   15800    294.60492   -1151.3571    286.50938     459.4195    755.62038      39457.2 
   15900    299.66675   -1161.2355    259.75878    445.54375    366.72224      39457.2 
   16000    312.51555   -1217.8636    274.62969    461.54272    557.55095      39457.2 
   16100    303.97413   -1195.8311    280.49661    451.04795    778.13996      39457.2 
   16200      299.948   -1166.1776    284.38442    466.49153    668.39648      39457.2 
   16300    293.52073   -1175.4747     283.4147    427.33376    823.73359      39457.2 
   16400    310.67726   -1187.6035    272.25419    481.16407     727.8936      39457.2 
   16500     305.9697   -1173.3063    289.13586    491.18221    138.28641      39457.2 
   16600    299.17932   -1184.3673    258.75501    419.21717     55.66809      39457.2 
   16700    294.03577   -1164.9069    277.61614    434.41811   -97.023082      39457.2 
   16800    300.55262   -1143.4824    284.77809    492.29827   -102.80296      39457.2 
   16900    301.28445   -1155.3321    295.40881    494.36889     339.3271      39457.2 
   17000    310.82038   -1157.8024     303.2186    542.57298    481.58752      39457.2 
   17100    300.11741   -1141.9859    280.38353    487.44382    397.55213      39457.2 
   17200    302.72308   -1204.1974    281.13742    437.69894    293.72519      39457.2 
   17300    296.59456    -1188.415    296.90683    441.70263    317.37214      39457.2 
   17400    298.43266   -1141.9004     303.8235    503.39624    1261.9382      39457.2 
   17500    308.25947   -1180.9797    277.74496     482.4105    1054.1056      39457.2 
   17600    307.80948   -1167.8139    311.18124    526.98992    718.54305      39457.2 
   17700    303.89537   -1152.1461    297.64299     511.5253    553.60569      39457.2 
   17800    299.07645   -1160.1734    273.64566    457.83929    648.29686      39457.2 
   17900    291.64973   -1209.0789    320.34864    422.25319    895.04987      39457.2 
   18000    300.18373   -1203.4545    299.03071    444.92051    261.50275      39457.2 
   18100    293.93648   -1146.1008    289.27417    464.43598    275.57052      39457.2 
   18200    299.52096   -1125.8556    304.38353    524.89303   -233.18465      39457.2 
   18300    294.54913   -1180.8651    291.83337    434.98471   -66.884785      39457.2 
   18400     307.0258   -1193.1089    296.32651    483.31747    317.68792      39457.2 
   18500    293.66263   -1188.4194    295.72369     427.3359    138.84431      39457.2 
   18600    302.29247   -1159.3708    299.80624    499.25866    279.38439      39457.2 
   18700    297.46335   -1203.3569    284.91489    418.67404   -99.688405      39457.2 
   18800    305.04384   -1202.1022    297.88984    466.97848    456.40735      39457.2 
   18900     305.2574   -1204.2964    315.31265    483.16706   -21.372867      39457.2 
   19000    294.16418   -1171.5818    289.41285    440.11715    204.09064      39457.2 
   19100     295.8336   -1121.3176    312.77957    521.25221   -61.157638      39457.2 
   19200     314.7618   -1166.2158    309.68186     558.3397    321.49445      39457.2 
   19300    296.40574   -1157.2995    289.50648    464.56905    118.47454      39457.2 
   19400    305.68601   -1180.4645    301.81907    495.43205    448.82614      39457.2 
   19500     299.0278   -1211.0933     297.8096    430.86471   -153.62072      39457.2 
   19600    299.34661   -1144.9922    291.28175    491.87099    -48.91409      39457.2 
   19700    307.83388   -1179.9683    302.68132    506.44527    108.43615      39457.2 
   19800    295.38976   -1169.3128    304.13713    462.61948    166.15502      39457.2 
   19900    304.09878   -1206.9588    287.51503    447.49892    515.18289      39457.2 
   20000    301.97754   -1160.6295    306.88795    503.66602    171.85579      39457.2 
   20100    300.79106   -1218.4695    306.82997    440.43481   -224.26772      39457.2 
   20200    300.81359   -1216.7465    273.72629    409.15543    41.315354      39457.2 
   20300    304.60272   -1158.5748     321.8778    532.51093    555.19122      39457.2 
   20400    296.29722   -1170.0114    317.51648    479.37936     129.8056      39457.2 
   20500    303.30309   -1192.1431    298.01141    469.23442    557.06401      39457.2 
   20600    301.66564   -1190.4052    288.60654    454.20695    568.94399      39457.2 
   20700    300.87914   -1182.7768    313.26252    482.95599    312.39141      39457.2 
   20800    297.87625    -1145.201    304.56765     498.3387    339.35268      39457.2 
   20900    296.17795   -1111.2047    312.46935    532.60273     398.7667      39457.2 
   21000    296.57716    -1103.602    309.71937    539.24991     307.6829      39457.2 
   21100    296.95299   -1152.2088    326.66776    509.28094    369.12872      39457.2 
   21200    302.79318   -1157.3751    312.86363    516.56251    381.47499      39457.2 
   21300    313.65828   -1151.2879    311.91759    570.54301    446.99222      39457.2 
   21400    299.76273   -1166.1954    310.54022    491.79673   -60.300768      39457.2 
   21500    309.65896   -1152.6986    321.05238    560.28987    210.35929      39457.2 
   21600    295.07052   -1159.5169    308.16061    475.00384    241.29991      39457.2 
   21700    296.26052    -1148.912    323.81603    506.61331    16.039963      39457.2 
   21800    298.19683   -1170.4644    330.74429    500.69301   -81.118037      39457.2 
   21900    289.53643   -1199.6318    308.97323    410.82545    135.23144      39457.2 
   22000    297.94702   -1181.4688    310.25759    468.07902   -515.98306      39457.2 
   22100    293.35842   -1126.5883    342.65685    534.73268   -145.11049      39457.2 
   22200    311.44743   -1190.0115    307.30168    517.26552   -420.98158      39457.2 
   22300    300.49046   -1208.7693    323.78346    465.73725   -243.15623      39457.2 
   22400    302.31608    -1195.702    313.83006    477.05746   -219.27899      39457.2 
   22500    306.14945   -1198.4458    317.15303    494.86792     4.531926      39457.2 
   22600    294.70206   -1160.5073    308.68263    472.87925   -366.25664      39457.2 
   22700    304.39297   -1214.7464    297.73186    451.25063    -199.9937      39457.2 
   22800    304.37488   -1206.1536    331.58019    493.61039   -550.59943      39457.2 
   22900    309.40127    -1210.802    324.41339    504.38912   -395.40557      39457.2 
   23000    301.09758   -1203.7346    314.49285    464.21042    11.781317      39457.2 
   23100    306.26685   -1238.6906    311.28382    449.28153   -198.46292      39457.2 
   23200    301.44981   -1245.7319    307.43976    416.74331   -71.629574      39457.2 
   23300    305.88232    -1268.441    317.47121    423.99003    185.55285      39457.2 
   23400    304.24869   -1224.5785    322.26833    465.30641    549.58012      39457.2 
   23500    308.44512   -1255.5263     327.1385    458.09201    580.57722      39457.2 
   23600    290.50448    -1217.548    327.27832    415.56579    476.90738      39457.2 
   23700    308.74302    -1251.146    321.66791    458.34083    625.06017      39457.2 
   23800    310.33803    -1237.882     333.1828    490.28938    903.94445      39457.2 
   23900    297.59456   -1243.1628     310.4128    404.95589    773.87919      39457.2 
   24000    292.61806   -1243.2374    327.84449     399.9433    978.68587      39457.2 
   24100    294.91008   -1201.9816    338.64569    462.30308    634.01083      39457.2 
   24200    300.43973   -1220.2869    333.67466    463.88282    336.83802      39457.2 
   24300    302.78108   -1240.9595    325.35648    445.41652    217.68064      39457.2 
   24400    297.09022   -1217.2724    317.31946     435.4859     285.1987      39457.2 
   24500    312.15274   -1186.7667    319.51787    535.89693    -91.27683      39457.2 
   24600    292.23313    -1230.045     341.5424    425.10327    198.41448      39457.2 
   24700    307.82597    -1184.182    340.79567    540.31038    459.72203      39457.2 
   24800    306.00568   -1218.4939     338.2965    495.31698    290.81985      39457.2 
   24900     302.0836   -1214.9939    326.64208    469.53258    425.04389      39457.2 
   25000    293.45366   -1219.7736    324.65594    423.97457    668.80579      39457.2 
   25100     304.2233   -1253.8701    321.03199    434.66438   -21.460694      39457.2 
   25200    287.06243   -1199.6102    344.73422    435.48734    201.80698      39457.2 
   25300    286.49286   -1224.7206    338.54824    401.63066   -188.79918      39457.2 
   25400     290.7064   -1239.7867    317.29989    384.25636   -237.23821      39457.2 
   25500    296.69236   -1232.0264    310.57906    412.20304   -140.92091      39457.2 
   25600    288.04352   -1220.7902    311.34692    385.33001   -536.19321      39457.2 
   25700    301.45708   -1228.2532    334.40793    461.22291   -581.69693      39457.2 
   25800    297.04273   -1258.1614    350.26401      427.328   -246.85913      39457.2 
   25900    303.83067   -1181.1442    337.64227    522.23562    84.417509      39457.2 
   26000    307.91703   -1211.1876    349.09295    522.01141     444.3718      39457.2 
   26100    300.09945   -1234.3884     340.0248    454.60189   -57.143563      39457.2 
   26200     298.7785   -1210.6781    338.50818    470.85784    10.088408      39457.2 
   26300    312.44572   -1244.2061     322.7904    483.04707    183.64407      39457.2 
   26400    291.34537   -1213.9839    338.37528     434.0068    131.04029      39457.2 
   26500    298.72041   -1187.8534    352.43793    507.35109   -12.565523      39457.2 
   26600    297.98512   -1203.2007    327.49494     463.7557   -145.17273      39457.2 
   26700    295.59846   -1182.7195    346.83817    492.85199    18.957101      39457.2 
   26800    293.81564   -1191.6071    334.96926     464.0815    271.57563      39457.2 
   26900    292.09864   -1228.9787    328.48085    412.50354    367.12358      39457.2 
   27000    293.36689   -1238.4946    334.81017    415.01779    614.79107      39457.2 
   27100    299.36498    -1215.811    349.92827    479.78135    639.13557      39457.2 
   27200    300.93601   -1210.2158    335.54983    478.05992    433.36275      39457.2 
   27300    296.52916   -1240.8007    350.45428    442.57035    719.39321      39457.2 
   27400    308.97067   -1273.3129    334.55404    450.08329    234.05242      39457.2 
   27500    295.23756   -1248.1362    346.07837    425.05312    448.87874      39457.2 
   27600    293.51642   -1247.3163    346.19688    418.25491   -113.97044      39457.2 
   27700    291.09993    -1212.507    332.29026    428.29532    253.26086      39457.2 
   27800     311.1937   -1211.4761    348.05747    535.41624    501.85874      39457.2 
   27900    297.59298   -1213.3643     338.4389    462.77337    286.32832      39457.2 
   28000    302.83743   -1204.0764    327.69205     484.8886    265.67557      39457.2 
   28100    294.81174   -1178.1029    349.43604    496.53011    260.10252      39457.2 
   28200    299.83372     -1201.65    331.37387    477.49489    443.54795      39457.2 
   28300    299.13955   -1200.5914     339.1723    483.23156    404.06569      39457.2 
   28400     292.0225   -1146.8327    354.23176    520.05819    539.38037      39457.2 
   28500     299.9387   -1154.3654    354.80419    548.68173     442.6354      39457.2 
   28600      308.185   -1215.4142    372.51768    542.41398    967.51714      39457.2 
   28700    303.77774   -1213.9369    352.12606    503.68883    794.67462      39457.2 
   28800    307.14911   -1210.8478    342.37655    512.18296    342.33797      39457.2 
   28900    294.17759   -1199.1676    346.45996    469.63874    214.12991      39457.2 
   29000    300.08483   -1222.9896    355.28583    481.19604    163.54169      39457.2 
   29100    297.89405   -1240.9108    348.02574    446.16704    661.65715      39457.2 
   29200    302.26587    -1217.603     349.2712    490.37192    562.61608      39457.2 
   29300    308.18463   -1228.4958    349.84852    506.66164    770.77475      39457.2 
   29400    289.83637   -1195.1834    362.79707    470.44595     456.7728      39457.2 
   29500    294.75727   -1220.9927    350.50517     454.4646    975.32467      39457.2 
   29600    302.81189   -1178.5625    347.52114    530.11673     751.9896      39457.2 
   29700    303.57049   -1202.4546    337.71932    499.83272    336.81963      39457.2 
   29800    306.68036   -1234.3847    339.13305    483.29549   -200.31048      39457.2 
   29900    305.84067   -1219.1392    372.95014    528.58357    114.21948      39457.2 
   30000    292.86277   -1236.8834    368.52479    448.07755     475.0464      39457.2 
   30100    296.94076   -1211.1641    355.00985    478.61275   -212.55014      39457.2 
   30200    296.24638   -1259.0058    339.93113    412.57107    32.186059      39457.2 
   30300    307.27779   -1231.0054    353.00308    503.23021     56.98749      39457.2 
   30400    293.90769   -1246.0071    343.84225    418.96834    471.61966      39457.2 
   30500    297.51376   -1233.0876    345.93614     450.1912   -68.137669      39457.2 
   30600    299.62855   -1260.3976    365.80221    452.25332   -170.29605      39457.2 
   30700    298.67566   -1205.0656    369.10425     506.6041   -203.89984      39457.2 
   30800    287.00101   -1258.1438    355.39011    387.33348   -201.49809      39457.2 
   30900    308.67853   -1261.8721     342.6071      468.264    203.78418      39457.2 
   31000    303.58991   -1271.1225    350.89562    444.42848   -355.14155      39457.2 
   31100    302.33999   -1242.8794    350.39208    466.54954   -167.58447      39457.2 
   31200    303.08583   -1267.2534    354.76575    449.90179   -246.20607      39457.2 
   31300     309.8024   -1230.6432    367.47254    529.41023   -353.87942      39457.2 
   31400    309.66572   -1273.8037     339.5368    457.69961   -307.94128      39457.2 
   31500    300.80568   -1269.9484    351.18565    433.37731   -224.47596      39457.2 
   31600    299.60991   -1312.2886     371.3637     405.8401    35.944682      39457.2 
   31700    291.56833   -1293.5681    346.45154    363.50103   -189.53579      39457.2 
   31800    296.85493   -1246.1729    359.33958    447.54787   -151.16988      39457.2 
   31900    303.91601   -1260.6292    359.84699    465.33893   -499.12668      39457.2 
   32000    306.33585    -1308.121    349.43447    418.31195   -464.35897      39457.2 
   32100    288.21036   -1287.4982     352.3986    360.42368    -532.0955      39457.2 
   32200    306.34562   -1293.8056    353.31877    436.55565   -462.50268      39457.2 
   32300    296.07892   -1301.7082     357.3803    386.56509   -176.21604      39457.2 
   32400    299.28974   -1313.8611    356.13158     387.5963    285.35313      39457.2 
   32500    306.52736   -1290.1976    366.24181    453.90356    751.02489      39457.2 
   32600    304.20056   -1296.2571    368.31737     439.4605    575.62142      39457.2 
   32700    296.32773   -1264.6618    397.18904    464.53866    577.28451      39457.2 
   32800    302.53138   -1257.7446    376.30979    478.46239    280.91866      39457.2 
   32900     291.4861   -1219.4709    382.94438    473.72146    515.35191      39457.2 
   33000    306.30517     -1302.91    356.43317    430.38372    212.57217      39457.2 
   33100     300.5581   -1268.9031    366.98853    449.11258   -114.61872      39457.2 
   33200    297.79486   -1249.5192    367.32214    456.40915    29.325633      39457.2 
   33300    297.26278   -1267.8458    360.50092    428.86964    290.60155      39457.2 
   33400    299.56926   -1296.3871    342.21815    392.41335    41.595815      39457.2 
   33500    298.83223   -1236.2135    351.68869    458.74447    175.60559      39457.2 
   33600    308.00935   -1233.3376    358.29953    509.48298     32.77756      39457.2 
   33700    310.88366   -1242.7333    357.13008    511.83792    29.463985      39457.2 
   33800     301.8863   -1271.3338    379.81886    465.48253    328.18059      39457.2 
   33900    291.73555   -1209.6467    384.03764    485.76024    465.49235      39457.2 
   34000    316.57949   -1239.1091    356.03317    539.96838     730.5446      39457.2 
   34100      288.018   -1275.6743    375.00438    393.98867     435.1801      39457.2 
   34200     302.2603   -1272.4335    366.98475    453.22994    203.97499      39457.2 
   34300    299.63908   -1285.3339    368.47161    430.03378   -3.2368469      39457.2 
   34400     299.5399   -1251.1528    370.69078    465.98824    369.36135      39457.2 
   34500    314.02628   -1227.3822     373.6175     557.8028    661.34428      39457.2 
   34600    292.53812   -1266.1879    381.53712    430.32606    437.71306      39457.2 
   34700    304.85612   -1277.7916    360.97607    453.53153    773.42305      39457.2 
   34800    301.90356   -1275.5354     370.8172    452.35688    668.01169      39457.2 
   34900    303.64627   -1312.4798    378.70581    431.13472    197.34701      39457.2 
   35000    300.01171   -1270.6636    364.92576    442.83323    96.695662      39457.2 
   35100    293.47443    -1257.901    374.95967    436.24428    254.08843      39457.2 
   35200    300.38376   -1200.1216    360.91184    511.03376   -233.74129      39457.2 
   35300     300.4946   -1242.4314    374.74863    483.05889   -218.83444      39457.2 
   35400     295.2523   -1282.1273    380.87207    425.92206   -405.38583      39457.2 
   35500    295.31197   -1267.1136    374.53774    434.86958   -17.555569      39457.2 
   35600    304.71863   -1251.9825    374.90852    492.65502    487.65082      39457.2 
   35700    305.99562    -1266.919    367.03244    475.58264    -34.48877      39457.2 
   35800    294.64003    -1245.517    377.21127    456.11939   -250.13411      39457.2 
   35900    294.90326   -1239.0294    395.86103    482.43993    190.67509      39457.2 
   36000    302.61497   -1271.4366    378.63102    467.46735   -273.25806      39457.2 
   36100    306.10339   -1282.8086    367.84384    460.98886   -556.43642      39457.2 
   36200    309.73117   -1254.3593    390.81858    528.71996    -865.5719      39457.2 
   36300     301.1038   -1264.2293    375.61103    464.86182   -525.33229      39457.2 
   36400     302.3254   -1281.5196    379.51631    456.96801   -122.17809      39457.2 
   36500     297.5934   -1266.3018    373.79278    445.19165   -8.1053225      39457.2 
   36600    301.03637   -1299.2549    370.91965    424.84174    71.484792      39457.2 
   36700    302.14849   -1321.4789    361.94434    398.64148    169.71777      39457.2 
   36800    307.71484   -1312.5186     344.8632    415.54176    320.31462      39457.2 
   36900    294.66623   -1290.7722    368.60131    402.37196    452.38342      39457.2 
   37000     304.4831   -1297.8774    379.16912    449.96205    320.05776      39457.2 
   37100    299.87049   -1349.9318    372.65908    370.66358    177.56185      39457.2 
   37200    295.97488   -1315.4196    375.86684    390.87254     48.11712      39457.2 
   37300      295.154   -1277.4278    380.79621    430.10379   -168.21997      39457.2 
   37400    294.33562   -1321.0004     370.5154    372.57171   -142.43054      39457.2 
   37500    305.70954   -1321.9077    376.20205    428.47751   -283.67409      39457.2 
   37600    304.82162   -1337.8043    382.49759    414.88524    86.952334      39457.2 
   37700    311.91447   -1304.4609    373.72122    471.33504   -249.86757      39457.2 
   37800    289.35618   -1289.3069    378.79843    390.16536    356.55893      39457.2 
   37900     305.2143   -1328.6094    383.24694    426.59461    488.15345      39457.2 
   38000    284.50436   -1325.1253    388.82754    342.56681    306.73723      39457.2 
   38100    306.31026   -1300.4008    381.08227    457.56496   -74.658042      39457.2 
   38200    304.21157    -1296.607    353.79691    424.63962    20.827563      39457.2 
   38300    302.06826   -1268.7341    392.67407    481.75535    104.06672      39457.2 
   38400    303.82948   -1317.5813    402.59847    450.74932   -34.081672      39457.2 
   38500    306.09877   -1326.5625    379.01422    428.38452   -68.434055      39457.2 
   38600    295.33826   -1329.8888    400.12638    397.80129    -393.2321      39457.2 
   38700    300.63346   -1342.4062     373.0203       381.98   -56.838832      39457.2 
   38800    293.12543   -1376.5445    393.90487    334.97718    103.19587      39457.2 
   38900    294.05637   -1322.4625     385.7381    385.07704   -53.664467      39457.2 
   39000    299.63754   -1306.9795    374.35072    414.26038   -90.130507      39457.2 
   39100    298.92718   -1321.6833    383.32968    405.34243    63.027501      39457.2 
   39200    296.27832   -1368.0787    381.56789    345.27846   -44.159864      39457.2 
   39300    316.44933   -1329.5341    376.42011    469.34523    786.79916      39457.2 
   39400      291.329   -1293.3852    405.05564    421.21223    330.61116      39457.2 
   39500    308.36568   -1307.0696    404.29235    483.34543    220.33029      39457.2 
   39600    298.22032   -1295.1821    383.33369     428.6703    28.575376      39457.2 
   39700    305.26669   -1293.1091      376.278    455.36149   -93.423921      39457.2 
   39800    310.80767   -1326.5545    379.53529    450.08046    422.25732      39457.2 
   39900    297.02696   -1333.9052    401.16207    402.41131    152.78931      39457.2 
   40000    309.12385   -1361.4367    383.34592    411.43992   -229.53468      39457.2 
   40100     295.4966   -1290.2747    408.60234    446.60304   -80.817172      39457.2 
   40200    292.40608   -1297.9189    397.06346    413.52784    259.54561      39457.2 
   40300    302.39028   -1310.6514    398.02806    446.63963    264.81279      39457.2 
   40400    299.06822   -1279.4804    371.40263    436.25234    75.373028      39457.2 
   40500    296.68756   -1275.7681    402.13254    459.99324    637.59345      39457.2 
   40600    309.68645    -1256.078    391.31426    527.29592    499.36551      39457.2 
   40700    297.53543   -1261.1924     399.8777    476.12538    528.64564      39457.2 
   40800    304.53407   -1269.9006    405.48783    504.48667    611.99141      39457.2 
   40900     306.3821   -1253.4802    389.01065     512.7369    354.95701      39457.2 
   41000    294.50436   -1289.4454    412.71693    447.08673    640.84349      39457.2 
   41100    306.55341    -1280.901    402.16377    499.23927    240.35594      39457.2 
   41200    293.39562   -1295.3617    410.46404    433.93373   -321.48654      39457.2 
   41300    307.97658   -1258.2038    398.33072    524.50065    75.208019      39457.2 
   41400    299.18025   -1263.6374    393.84738    475.04366   -185.53306      39457.2 
   41500     304.2022   -1266.9499    403.19975    503.65744     417.7681      39457.2 
   41600    297.91839   -1223.3691    431.37811    547.17054    122.17255      39457.2 
   41700    289.34369   -1225.4241    389.49792    464.69149    69.173492      39457.2 
   41800    306.74605   -1186.5302    402.87592    595.18814    -127.7385      39457.2 
   41900     292.6764   -1208.0838    378.47616    485.99077    191.26957      39457.2 
   42000    306.93491   -1230.9556    417.04758    565.78331    246.37602      39457.2 
   42100    297.65898    -1233.361    412.50517    517.13957    309.62502      39457.2 
   42200    299.67373   -1226.0371    394.65156    515.66627    357.91738      39457.2 
   42300    306.27828   -1248.6872    392.65336    520.70586    252.38447      39457.2 
   42400     307.6144    -1256.397    386.46354    512.81222    316.90779      39457.2 
   42500    306.30726   -1248.4221    397.19903     525.6469   -248.21276      39457.2 
   42600    303.16645   -1251.2607    404.78757    516.27875    4.3721485      39457.2 
   42700    297.09455   -1266.7989    397.10616    465.76554   -39.047686      39457.2 
   42800    298.21845    -1236.817    414.60315    518.29639    381.13334      39457.2 
   42900      302.701   -1291.6618     402.6004    471.59829     450.5228      39457.2 
   43000    301.36221    -1285.925    384.29075     453.0074    463.80791      39457.2 
   43100    297.08059    -1280.225    408.44059    463.61109    778.12827      39457.2 
   43200    300.36343    -1299.688    389.63481    440.09892    504.16345      39457.2 
   43300    296.51482   -1295.5746    388.05648    425.33425    366.90104      39457.2 
   43400    301.88804   -1318.8757    391.86825    429.99793    309.00856      39457.2 
   43500    300.35308   -1292.6692    385.59743    443.03385    162.90183      39457.2 
   43600    308.41182   -1277.1782    385.08523    494.23715    227.12302      39457.2 
   43700     307.5303   -1296.0083    394.48641    480.84573     121.9478      39457.2 
   43800    306.92187   -1283.9961    368.68956    464.32621    153.71254      39457.2 
   43900    298.62559   -1277.4536    383.14134     448.0282    805.94786      39457.2 
   44000    301.53604   -1291.3866    407.87831    471.91483    384.56334      39457.2 
   44100    293.53749   -1260.7188    414.28838    473.03863    393.94548      39457.2 
   44200    291.62805   -1308.2034    404.13953     406.8222    445.31645      39457.2 
   44300    302.17376   -1311.1929    385.71169    432.80845  -0.69702034      39457.2 
   44400    305.90314   -1278.4193      392.338    488.97218    68.190697      39457.2 
   44500    294.58591   -1293.5949    404.76075    435.34771    -30.01068      39457.2 
   44600    290.27584   -1286.3402    401.81861    420.28618     243.3533      39457.2 
   44700    297.45957   -1345.9171    394.30377    385.48578    447.76799      39457.2 
   44800    294.61198   -1327.9427     380.6256    376.98185     297.5512      39457.2 
   44900    287.17357   -1316.0833     382.2911    357.07064   -247.03702      39457.2 
   45000    295.07957   -1317.3277    384.08075    393.15391    26.485001      39457.2 
   45100    308.46979   -1304.6505    375.42127    457.36141    603.49672      39457.2 
   45200     314.5825   -1272.5446    393.39827    534.92136    537.01068      39457.2 
   45300    290.94877   -1287.4174    411.59992    432.01521    641.18933      39457.2 
   45400     301.0954   -1324.4668    409.97005    438.94554    148.93777      39457.2 
   45500    298.16495   -1311.4383    386.51576    415.34723   -638.23741      39457.2 
   45600    298.43539   -1293.1883    416.35211     464.6492   -834.82123      39457.2 
   45700      301.959   -1237.6569    394.37179    514.03922   -135.73439      39457.2 
   45800     298.4931   -1235.6679    411.26231     517.3393   -358.22129      39457.2 
   45900    295.09003   -1266.5342    389.14198    449.05563   -9.0062166      39457.2 
   46000    292.74941   -1265.0903    391.58622    442.42254    128.37583      39457.2 
   46100    294.68472   -1292.2542    403.01101    435.38272   -6.5720526      39457.2 
   46200    297.43092   -1277.8069    409.68499    468.84842   0.47713183      39457.2 
   46300    293.66453   -1289.6284     386.9131    417.32488    669.60054      39457.2 
   46400    297.10491   -1284.3483    372.16093    423.31749    410.37182      39457.2 
   46500    307.20393   -1292.9088    378.22964    466.22144    227.50551      39457.2 
   46600    301.36879    -1336.914    400.95171    418.70893   -67.315673      39457.2 
   46700    305.56632   -1326.1133    391.48801    438.91412    320.80663      39457.2 
   46800    308.14032   -1323.7942    403.94425    465.25974    383.51208      39457.2 
   46900    305.10461    -1307.429    395.16021    459.19524    420.36803      39457.2 
   47000    294.97509   -1263.8906    374.25099     436.2916   -253.28293      39457.2 
   47100    298.86462   -1279.0098    369.98311    434.38817   -182.20789      39457.2 
   47200    293.89591   -1291.3738    416.65448     446.3609   -201.87488      39457.2 
   47300    306.61703   -1292.1325    392.08863    478.21852    224.96274      39457.2 
   47400    300.69869   -1264.2099    422.49167    509.94085    284.56824      39457.2 
   47500    304.39653   -1270.4705     406.8642    504.67483    14.192988      39457.2 
   47600    303.77992   -1241.1545     391.1148    515.46973    123.36907      39457.2 
   47700    297.94277    -1278.081    396.43453    457.62458    162.48561      39457.2 
   47800    304.08844   -1266.5141    401.85046    502.23264    406.35247      39457.2 
   47900    309.02172    -1278.721    430.29574    540.64642   -80.174688      39457.2 
   48000    307.64168   -1263.9458    398.50773     517.4302    450.33092      39457.2 
   48100    295.05497   -1237.5553    377.10666    465.84164    254.95013      39457.2 
   48200    289.62607   -1269.0661    410.11894    442.93988    336.12264      39457.2 
   48300    304.72385   -1284.3273    428.31933    513.74454    127.72139      39457.2 
   48400    297.60471   -1303.1425    424.53846    459.14743    130.84266      39457.2 
   48500    299.07987   -1270.9883    404.77349    478.16762    -354.9398      39457.2 
   48600    291.86092   -1275.0812     410.5722    447.42379    -241.4017      39457.2 
   48700     301.1001   -1280.8443    412.14577    484.76492    19.575087      39457.2 
   48800    297.77188   -1292.9166    415.89431    461.48065   -272.79737      39457.2 
   48900    324.32843   -1291.1171     377.7908    544.54995    43.688314      39457.2 
   49000    302.92448   -1331.5741    409.62236     439.7124   -506.10851      39457.2 
   49100    307.21588   -1314.9507    411.61393    477.61749   -242.41259      39457.2 
   49200    285.83549   -1280.0348    390.96186    395.77519    -229.5249      39457.2 
   49300    302.44894   -1305.5095    418.73179    472.74888   -328.90701      39457.2 
   49400    297.47025   -1292.0438    410.92557    456.02885   -498.42103      39457.2 
   49500    307.27774   -1302.6512    418.59991    497.18113   -195.70926      39457.2 
   49600    300.00543   -1297.3659    428.70944     479.8864   -414.54014      39457.2 
   49700    304.45627   -1322.8266    405.82507    451.54811   -212.85316      39457.2 
   49800     300.9371    -1336.856     421.3519     437.2267   -182.96534      39457.2 
   49900    286.85482   -1331.6206     393.4538    351.26323   -201.37318      39457.2 
   50000    293.14337   -1285.0807    413.00122    445.61808   -16.118423      39457.2 
   50100    299.20684   -1296.1116    417.19399    466.03557    47.826222      39457.2 
   50200    294.45435    -1325.368    410.17101    408.39348   -221.88601      39457.2 
   50300    306.12263   -1361.2952     409.9289    424.67377    287.54534      39457.2 
   50400    301.49524   -1341.8101    410.17918    423.60871    -61.98417      39457.2 
   50500    299.24962    -1352.717    408.51681    400.94529   -214.08269      39457.2 
   50600    300.96867   -1365.4236    394.43003    381.87912   -231.00876      39457.2 
   50700    295.77064   -1337.1335    406.15769    398.53139   -51.451507      39457.2 
   50800    305.46051   -1286.3235     399.7894    486.52974     -125.552      39457.2 
   50900    296.61846   -1333.2824    392.73263    392.76845    152.45766      39457.2 
   51000    295.90175   -1331.6575    415.83282    414.27185    95.767524      39457.2 
   51100    303.27435   -1294.0353    394.19163    463.39324    66.865578      39457.2 
   51200    312.20712   -1325.7923    400.80805    478.40591    612.44362      39457.2 
   51300    300.71256   -1320.8117    417.43606    448.34584    1265.3043      39457.2 
   51400    303.59993   -1344.6205    412.03658    432.11641    1076.4442      39457.2 
   51500    302.02242   -1342.6925    398.14031     413.0572    774.68991      39457.2 
   51600    298.94773   -1317.6025     422.4333     448.6193    274.94957      39457.2 
   51700    298.59046   -1304.1197     421.8964    459.95916    431.33906      39457.2 
   51800    293.87831   -1375.3788    420.02145    365.64373    298.58057      39457.2 
   51900    299.55109   -1353.0226    408.59139    402.06935    377.58214      39457.2 
   52000    301.22811   -1358.6506    390.03238     385.4207   -88.070121      39457.2 
   52100    310.51799    -1328.059    418.02777    485.76628   -315.69912      39457.2 
   52200    297.48976   -1342.1241    377.79744    372.90809   -221.81089      39457.2 
   52300    299.08457   -1323.7778    386.35196    406.97771   -358.33587      39457.2 
   52400     300.8049   -1353.7121    403.67424    402.09871    -135.7246      39457.2 
   52500    301.54343   -1298.8333    410.97775    467.60066    124.37264      39457.2 
   52600    303.23311   -1301.2656    418.78459    480.57047    480.44023      39457.2 
   52700    301.96473   -1315.4179    400.63432    442.56643    394.34788      39457.2 
   52800    300.99382   -1344.6261    391.44968    399.80937    78.337197      39457.2 
   52900    291.09083   -1345.7873    393.02688    355.71079     51.57572      39457.2 
   53000    300.02689   -1365.8063     384.0427    366.87576   -238.73272      39457.2 
   53100    307.85872   -1308.7667    379.19304    454.27024    631.96127      39457.2 
   53200    292.74727   -1319.4129    396.64466    393.14877   -94.816166      39457.2 
   53300    287.43896   -1280.6536    413.90988    425.31208    656.94323      39457.2 
   53400    300.74375   -1289.9067    387.50994    449.46488   -55.767788      39457.2 
   53500    301.20048   -1305.1675    395.50133     444.2485   -12.392148      39457.2 
   53600    298.24239   -1314.5277    399.96548    426.05569     287.4803      39457.2 
   53700    306.16403   -1343.3988    405.24069    438.06804    479.50981      39457.2 
   53800    291.87153   -1337.2867    407.68223    382.37601     270.5993      39457.2 
   53900    297.32711   -1352.3419    408.92305    393.08483    129.51535      39457.2 
   54000    306.54347   -1350.4664    403.13163    430.59697    674.91374      39457.2 
   54100     299.9121   -1335.9817    390.27484     402.4165    315.26475      39457.2 
   54200    297.98115   -1329.3585    381.93338    392.01844   -18.286879      39457.2 
   54300    298.32747   -1358.5917    405.94238    388.35103    8.3304698      39457.2 
   54400    308.46218   -1332.5316    414.13225    468.15714   -26.687171      39457.2 
   54500    294.76822    -1331.418    382.22208    375.80543    5.6002351      39457.2 
   54600    303.81232   -1334.0032    406.79092    438.44276    82.745975      39457.2 
   54700    306.67201   -1275.0888    390.00812    493.42886  -0.89878737      39457.2 
   54800    287.95651   -1277.0344    425.63441    442.98228    119.72664      39457.2 
   54900     303.4199   -1295.1713    413.39575    482.11554   -161.26843      39457.2 
   55000    312.61094   -1279.5203    411.38293      537.068   -184.48816      39457.2 
   55100    301.00411    -1280.088    435.02667    507.97063   -176.10098      39457.2 
   55200    303.54719   -1294.5327    451.16129    521.09191   -472.69421      39457.2 
   55300    294.96804   -1335.1672    406.81993    397.55223   -466.22491      39457.2 
   55400    296.47626   -1346.7994    414.29715     400.1768   -800.72157      39457.2 
   55500    294.04864   -1342.1989    413.11735    392.68526    68.347044      39457.2 
   55600    301.47221   -1339.4143    415.94333    431.66521   -8.0251563      39457.2 
   55700    300.92347   -1360.6622    437.19811    429.20537     289.2478      39457.2 
   55800    304.98398   -1339.4549    426.70536    458.17227    534.11222      39457.2 
   55900    304.98663   -1360.1841    406.93441    417.68399    332.43395      39457.2 
   56000    305.36473   -1348.5832    403.98057    428.03069    303.57563      39457.2 
   56100    293.41346   -1341.2108    422.03481    399.73554    1145.1025      39457.2 
   56200    298.85676   -1366.0085    421.81608    399.18711    1060.4868      39457.2 
   56300     295.1709   -1378.9717    415.92173    363.76144    266.96905      39457.2 
   56400    296.98083   -1349.2506      394.497    380.19356    510.50138      39457.2 
   56500    296.95285   -1326.1459    409.74812    418.42358    607.86409      39457.2 
   56600     296.6335   -1356.7922    417.60453    394.19813    509.87351      39457.2 
   56700    305.12241   -1312.8538    442.36237    501.05259    501.09733      39457.2 
   56800    301.65327   -1369.4858    435.60626    422.07054   -111.45465      39457.2 
   56900    306.88061   -1327.4769    411.37339    463.34378   -619.35587      39457.2 
   57000    297.22126   -1299.4742    408.45688    445.01051   -627.08645      39457.2 
   57100    292.39538   -1312.5593    407.11132    408.88724   -97.717035      39457.2 
   57200    300.45214   -1380.5656    410.84427    380.82948    152.39155      39457.2 
   57300    309.38507   -1368.1391    431.54334    454.10917    269.86751      39457.2 
   57400    302.13303   -1339.8152    391.54324    409.83458   -233.59669      39457.2 
   57500    293.94881   -1356.2988    414.66959    379.68883   -31.259863      39457.2 
   57600     302.4427   -1365.7058    396.90396     390.6967   -335.26797      39457.2 
   57700    295.86759   -1317.8514    413.49702    425.58863   -1.5556534      39457.2 
   57800    306.79785   -1341.2371    391.47674    429.31484    29.109144      39457.2 
   57900    301.39493     -1344.84    408.94539    418.89418    177.64841      39457.2 
   58000    309.50665   -1345.4172    419.08088    464.91511    124.84276      39457.2 
   58100    298.56648   -1365.5864    398.09038    374.57866    -171.3163      39457.2 
   58200    291.19731   -1338.1808    427.27896    398.04796   -105.06482      39457.2 
   58300    303.05543   -1328.4358    428.91955    462.73651    133.05417      39457.2 
   58400    295.59786   -1306.1854    425.21499    447.76017    441.32329      39457.2 
   58500    293.96705   -1330.6693    413.02947    403.76016    291.55853      39457.2 
   58600    293.83129   -1334.4905    444.42466    430.72393    337.14136      39457.2 
   58700    287.97456   -1341.9613    424.94535    377.44746    228.47953      39457.2 
   58800    306.98935   -1323.3127    420.43935    477.06271   -30.030334      39457.2 
   58900    294.78002   -1343.5833    425.55956     407.0306   -238.41317      39457.2 
   59000    309.43654   -1353.7137    403.20019    440.42279   -574.24785      39457.2 
   59100    311.53496   -1285.6229    419.32832    534.07427   -279.35057      39457.2 
   59200    294.07318   -1323.3924    427.81931    426.30394   -422.39119      39457.2 
   59300     302.0204    -1328.533    430.46338    459.53069   -569.20544      39457.2 
   59400    299.70122    -1331.067    416.31506    432.42344   -463.92745      39457.2 
   59500    297.48309   -1348.5026     435.3471    424.04932   -470.13025      39457.2 
   59600    303.67509   -1340.3993    392.20205    416.84097    16.765197      39457.2 
   59700    297.16289   -1310.1263    422.79164    448.43082   -197.86155      39457.2 
   59800    302.84479   -1333.2188    417.62671    445.71394   -132.66895      39457.2 
   59900    300.59795   -1329.4843    416.01759    437.73955   -66.222973      39457.2 
   60000    303.24233   -1305.9703    426.59502    483.71769   -378.07609      39457.2 
   60100    301.86335   -1292.1507    437.97681    502.72046    91.874672      39457.2 
   60200     304.9911   -1324.9397    418.94677    464.96086   -15.247708      39457.2 
   60300    294.68548   -1349.3262    440.32629    415.62944    19.890203      39457.2 
   60400    315.92385   -1342.8661    425.27453    502.50555   -234.21572      39457.2 
   60500    292.07976   -1364.0471     394.6097     343.4791   -441.72708      39457.2 
   60600    303.48577   -1348.7114    414.90715    430.38292   -443.73942      39457.2 
   60700    299.07815    -1322.378    405.88922    427.88589   -231.67492      39457.2 
   60800    304.11148   -1327.9719     405.6896    444.71748   -263.74381      39457.2 
   60900    295.54314   -1355.5049    402.65358    375.63323    -136.1451      39457.2 
   61000    303.93938    -1346.016    391.36279      411.573   -350.11626      39457.2 
   61100    314.46113   -1362.7667    394.79659    445.55207   -308.61868      39457.2 
   61200    300.55195   -1377.2597     416.8779    390.61768   -221.13457      39457.2 
   61300    295.00968   -1396.1581    419.69902    349.62759    -18.70417      39457.2 
   61400    304.79265   -1331.6892    420.26132    458.63381    26.449076      39457.2 
   61500    292.91105   -1372.8684    420.53492    364.31975     207.3541      39457.2 
   61600    298.31444   -1386.3612    410.62291    365.20345     200.7693      39457.2 
   61700    305.18211    -1336.877    415.18841    450.12374   -383.68662      39457.2 
   61800    295.92096    -1362.505    420.55202    388.22997   -100.89129      39457.2 
   61900    311.26434   -1340.3691    410.48989    469.27311    66.921082      39457.2 
   62000    306.36871   -1352.3463    423.91439    448.71433    77.746711      39457.2 
   62100    299.00424   -1361.4119    397.78366    380.41426    112.40635      39457.2 
   62200    292.82523   -1368.3326    415.69316    363.62802     -177.632      39457.2 
   62300    312.52328   -1373.1334    434.07049    465.74845    257.97995      39457.2 
   62400    295.83178   -1341.9451    419.14096    406.97795    245.77863      39457.2 
   62500    307.36951   -1406.1655    434.18348    409.66281     215.4404      39457.2 
   62600    309.37561   -1397.8632    428.28145    421.08069    455.20245      39457.2 
   62700    297.69192   -1370.6547    451.63728    419.12612    184.32228      39457.2 
   62800    299.70692   -1423.1729    397.05941     321.0876    262.30135      39457.2 
   62900    310.59251   -1383.0811    395.80992    408.86124    165.85483      39457.2 
   63000    303.79166    -1415.332    408.53163    358.76184    499.16803      39457.2 
   63100    291.24667   -1421.9745    393.82587    281.02302   -3.6354967      39457.2 
   63200    306.96944    -1370.916    422.69803    431.62853   -198.08964      39457.2 
   63300    303.35902   -1360.6138    412.59329      415.597    -232.8916      39457.2 
   63400    298.21679   -1422.1827    422.94818    341.26837   -186.97569      39457.2 
   63500    302.15474    -1396.764    417.49572    378.93594    137.17011      39457.2 
   63600    297.15504   -1416.2275    418.96492    338.46767   -59.745639      39457.2 
   63700    305.01726   -1347.4446    422.68328    446.31008   -70.681964      39457.2 
   63800    290.84489   -1358.0465    449.12991    398.44911   -398.61903      39457.2 
   63900    289.29644   -1348.1279     429.3832    381.66059   -237.92734      39457.2 
   64000    299.71099    -1403.953    438.04004    381.30634   -295.75678      39457.2 
   64100    304.41458   -1400.4441    435.22268    403.14081    -162.5621      39457.2 
   64200    305.03098   -1368.0142    425.39643     428.5153   -98.684471      39457.2 
   64300     298.1728   -1364.3008    437.57568       413.58   -404.04352      39457.2 
   64400    301.58823   -1384.1918    437.07878    408.54463   -269.90401      39457.2 
   64500    313.12278   -1373.4682    463.72697    497.76491   -318.37589      39457.2 
   64600    302.84088   -1394.0212    458.65551    425.92271   -426.22258      39457.2 
   64700    303.73282    -1401.205    422.71629    386.80903    75.339791      39457.2 
   64800     303.5593   -1384.6994    436.44584    416.26418    -80.76885      39457.2 
   64900    297.84102    -1365.662    439.42013    412.57185   -102.07903      39457.2 
   65000    303.95309   -1395.1113    434.28677    405.46333      39.6848      39457.2 
   65100    300.83829   -1367.3343    414.73945    399.69181    450.73351      39457.2 
   65200    294.11652   -1367.6098    431.74178    386.20382    765.44862      39457.2 
   65300    301.41834   -1392.9868    422.20005    384.10726    554.18503      39457.2 
   65400    298.77177    -1347.905    450.34155    445.43401    637.61374      39457.2 
   65500     297.3375   -1378.4035    453.77873    411.92561    224.34487      39457.2 
   65600    306.21761   -1345.8973    428.48613    459.05587    247.96577      39457.2 
   65700    296.81714   -1416.0496    430.49664    348.65838   -589.90464      39457.2 
   65800    293.37956    -1373.735    456.33346    401.35764   -268.28627      39457.2 
   65900    307.93661   -1363.7031    422.38996    442.88085   -413.43932      39457.2 
   66000    294.85869    -1360.644    446.54961    411.31354    213.17064      39457.2 
   66100    301.38299   -1383.2942    419.05741    390.49828   -51.945996      39457.2 
   66200    291.44164    -1361.742     424.1542    372.46031    114.88003      39457.2 
   66300    303.38328     -1368.25    424.54426    420.02077     459.9721      39457.2 
   66400    298.19237   -1345.0775    437.93885    433.25438     -356.052      39457.2 
   66500    295.81783   -1304.8183    438.16335    463.06442    117.21808      39457.2 
   66600    295.60969   -1363.8737    443.13637     408.0464   -761.13149      39457.2 
   66700    296.74343   -1328.7958    429.72233     434.8065    207.02632      39457.2 
   66800    293.63682   -1364.2814    434.89106    390.52522    131.79161      39457.2 
   66900    308.94741   -1363.0634    424.71446    450.38862    108.71985      39457.2 
   67000    308.58549   -1396.8919    419.64642    409.86531    422.35072      39457.2 
   67100    296.83805   -1385.3083     417.9137    366.91069    374.69018      39457.2 
   67200    316.87391   -1396.6595    415.52948    443.23774    480.60685      39457.2 
   67300     307.9444   -1370.9773    411.38933    424.64103    58.427173      39457.2 
   67400    296.99964   -1364.6038    432.95686     403.3847   -302.57993      39457.2 
   67500    289.69825   -1369.2927    399.70086    332.61966    121.62801      39457.2 
   67600    301.65937   -1381.7154     421.8107    396.07276   -111.80631      39457.2 
   67700    300.57585    -1344.915    428.68884    434.88076    4.0859485      39457.2 
   67800     300.5849   -1320.3844    431.30814    462.07136   -96.463812      39457.2 
   67900    297.56899   -1366.5677    449.08689    420.11014   -1.5118578      39457.2 
   68000    301.11604    -1388.844    421.64623    386.33739    209.49212      39457.2 
   68100    297.65172    -1354.321    439.21652    422.85829   -45.767979      39457.2 
   68200    302.46107   -1350.4898    442.08871    451.18004    148.89524      39457.2 
   68300    303.56903    -1367.819    448.38731    445.12978    245.64808      39457.2 
   68400    301.81964   -1368.8468    440.32071     428.1718   -67.786766      39457.2 
   68500    312.24173   -1324.4234    435.68722    514.80959     458.7156      39457.2 
   68600    309.65278   -1366.2143    423.32299      449.017    254.84737      39457.2 
   68700    293.66909   -1414.9489    416.70553     321.8172    96.769757      39457.2 
   68800    293.11065   -1364.7695    427.84984    380.63076    39.190169      39457.2 
   68900    298.72449   -1352.3714    442.68731    433.10088   -204.33089      39457.2 
   69000    307.45661   -1360.8989    426.60524    447.74273   -95.857204      39457.2 
   69100    291.03385   -1374.0524    438.07175    372.23443   -49.886978      39457.2 
   69200    303.67493   -1380.1274    401.99091    386.90102    31.199327      39457.2 
   69300    296.89521   -1409.7252    412.69717    337.53427   -246.89363      39457.2 
   69400    293.51103   -1421.5912    416.04302    313.80195   -346.93924      39457.2 
   69500    310.41003   -1404.3314    430.52059    421.50139   -416.96906      39457.2 
   69600    308.99688   -1424.2911    436.93182    401.60066   -529.28383      39457.2 
   69700    302.40563   -1420.0125    416.69598     356.0154   -95.471612      39457.2 
   69800    302.51339   -1402.7242    419.94611    377.03824    328.26892      39457.2 
   69900    300.64375   -1403.3045    439.42156    387.52919    180.46401      39457.2 
   70000    296.43967   -1400.7072    415.20037    347.00775    97.458267      39457.2 
   70100    301.18474   -1379.5049    429.71281    404.05186    171.89833      39457.2 
   70200    305.21647   -1357.2301    434.68232    449.41899    495.93549      39457.2 
   70300    296.46128   -1323.2636    430.77491    440.12307   -51.613437      39457.2 
   70400    294.76185   -1345.5199     431.6559    411.10867   -210.73387      39457.2 
   70500    293.82796   -1349.4853    422.94154    394.23101    46.627477      39457.2 
   70600    291.29509   -1320.0641    427.65519    416.98043    327.19353      39457.2 
   70700    293.05086    -1328.872    428.93136    417.34097    65.144645      39457.2 
   70800    303.32229   -1403.0187    418.25035    378.68397   -259.12756      39457.2 
   70900    295.84225   -1371.2669    422.71717    381.27943   -479.67826      39457.2 
   71000    297.60802   -1393.4127     427.0409    371.39458   -566.69093      39457.2 
   71100    307.22676   -1374.7117    432.49017    438.78169   -752.21418      39457.2 
   71200     302.2961   -1402.9447    433.55686    389.45174   -433.21135      39457.2 
   71300    308.41559   -1402.0921    406.63055    390.88556   -256.12418      39457.2 
   71400    287.91082   -1381.5899    438.96312    351.55012   -188.28293      39457.2 
   71500    302.45757   -1394.8056    400.26739    365.02718   -427.79988      39457.2 
   71600    301.47562   -1388.1391    404.43465    371.44701    -187.4381      39457.2 
   71700    303.89505    -1353.385    426.72619    439.36812   -241.17783      39457.2 
   71800    304.01467   -1405.7538    416.83296    377.64381   -24.524418      39457.2 
   71900    305.94919   -1367.8865    427.55675     434.9307    28.060282      39457.2 
   72000     293.0443   -1296.1861    451.97905    473.04515    -106.7442      39457.2 
   72100    291.90618   -1330.9725    434.00219    415.16595   -534.29008      39457.2 
   72200    301.21578   -1330.0277    423.36954     447.3253   -680.17057      39457.2 
   72300    300.81354   -1369.0599    430.76831     413.8838   -220.16961      39457.2 
   72400    307.43079   -1330.8998    458.22556    509.24611    -495.9455      39457.2 
   72500    296.38983   -1316.0359    413.06199    429.31658   -244.12067      39457.2 
   72600    294.72672   -1310.6482    458.75353    472.92008   -357.83649      39457.2 
   72700    302.22659   -1354.0232      438.953     443.4569   -526.18779      39457.2 
   72800    302.11281   -1338.3292    418.73554    438.42198   -14.731126      39457.2 
   72900    300.28134   -1341.5362    436.61576    444.86273   -66.044084      39457.2 
   73000    302.38743   -1336.7681    426.56297    449.04494   -265.75177      39457.2 
   73100    296.52695   -1359.5303    432.35924    405.73583   -406.47613      39457.2 
   73200    311.04924   -1350.0477    448.21461    496.35237    20.401992      39457.2 
   73300    298.52751   -1335.9309    418.17326    424.14189    674.12622      39457.2 
   73400    298.21998   -1341.0892    440.46631    439.89426    105.23765      39457.2 
   73500    299.26365   -1352.5104    448.83358    441.53168    369.62594      39457.2 
   73600    296.64021   -1383.1512    451.19872    401.46351    219.82358      39457.2 
   73700    300.98341   -1371.8201    430.56305     411.6819    -99.75403      39457.2 
   73800    302.30823    -1386.035    417.95487    390.81393    250.18682      39457.2 
   73900    301.49833   -1399.2976    405.20069    361.15667    114.51008      39457.2 
   74000     307.0077   -1349.6043    409.39065    439.80486    14.068494      39457.2 
   74100    298.42033   -1397.9464     420.0946    363.56601    14.904428      39457.2 
   74200    300.18804   -1394.4036    443.25233    398.21239    287.30415      39457.2 
   74300    297.99043   -1350.9578    433.12292    421.65045    433.18494      39457.2 
   74400    285.52469   -1353.5767    429.46877    359.34311    405.03515      39457.2 
   74500    297.81207    -1335.552    456.62295    459.75455    570.12989      39457.2 
   74600     300.5889   -1378.4749    431.42436    404.11503    380.66523      39457.2 
   74700    304.89453   -1395.0462    399.45722    374.93068     371.4762      39457.2 
   74800    303.40933   -1368.2606    401.44404    397.02701    1014.5025      39457.2 
   74900    298.62866   -1369.7266    410.78665    383.41429    497.50133      39457.2 
   75000    298.55023   -1329.9732    432.90387    444.93231   -243.56319      39457.2 
   75100    303.00583    -1354.592    427.04202    434.47987    -427.7853      39457.2 
   75200    293.48647   -1344.8712    423.47582    397.84437   -502.88258      39457.2 
   75300    308.44134   -1347.2557    423.35531    462.56241   -507.91862      39457.2 
   75400    302.33778    -1421.486    429.62284    367.16379    115.45415      39457.2 
   75500    306.75639   -1437.4796    416.85236    358.26161    562.86099      39457.2 
   75600     296.2652   -1370.4945    428.53109    389.76686    357.07868      39457.2 
   75700    297.94194   -1370.3726    422.64173     391.5365    416.23025      39457.2 
   75800    301.67253   -1391.1464    446.83384    411.72404    606.97068      39457.2 
   75900    293.17965    -1397.421    428.72941    349.16896    417.55454      39457.2 
   76000    297.88817    -1400.494    409.42836    347.96004    66.319853      39457.2 
   76100    315.42138   -1441.4757    414.85446    391.21734    83.106563      39457.2 
   76200    306.85523   -1418.5128    424.46836     385.2887     143.0594      39457.2 
   76300    307.01278   -1411.5077     424.6226    393.15628    613.72797      39457.2 
   76400    295.38407   -1403.9099    423.27542    347.13508    99.087469      39457.2 
   76500    293.95486   -1381.0537     425.2973    365.58877    491.42223      39457.2 
   76600    302.07036   -1413.2653    415.47532    360.03489    572.95143      39457.2 
   76700       303.96    -1402.874    434.92126    398.36621    517.11364      39457.2 
   76800    304.41685    -1418.732    438.30272    387.94317    515.34585      39457.2 
   76900    304.90946   -1394.5945    420.15591    396.14823    345.15445      39457.2 
   77000    313.75438   -1408.9889    427.27547    428.63181    197.69219      39457.2 
   77100    317.70429   -1383.4252    412.29374    456.96888    630.06834      39457.2 
   77200    303.24244   -1410.9336    431.87984    384.03964    833.06498      39457.2 
   77300    291.28808   -1391.9339    447.77878     365.2027    515.30413      39457.2 
   77400    307.84808   -1410.9292    414.10638    386.97321    35.350961      39457.2 
   77500    300.78501   -1407.8505    421.22118    365.41781    246.86983      39457.2 
   77600    311.36051   -1393.7085    451.23839     457.1145   -53.021266      39457.2 
   77700    293.53718   -1400.6907    456.18441    374.96141   -183.73227      39457.2 
   77800    294.19949   -1394.3135     439.4572    367.58851    443.04248      39457.2 
   77900    313.43725   -1413.6121    426.15121    421.45887   -132.18184      39457.2 
   78000    299.17724    -1402.144    413.18476    355.86082    180.52194      39457.2 
   78100     296.6195   -1370.7868    447.29661    409.83273    179.42795      39457.2 
   78200    297.68059   -1422.8496    425.29803    340.54099    515.48265      39457.2 
   78300    301.70828   -1393.7047    423.66832    386.16087    261.50601      39457.2 
   78400    304.94891   -1392.3477    444.21842    422.63488   -305.02387      39457.2 
   78500    302.74657   -1400.8595    427.80284     387.8078    431.28389      39457.2 
   78600    302.48742   -1464.1607    412.61072    308.14953   -241.85616      39457.2 
   78700    300.17416   -1401.8209    433.53476    381.01517     363.1997      39457.2 
   78800    300.54353   -1393.7781    412.49322    369.67676    105.96525      39457.2 
   78900    292.42874   -1380.6238     416.8693    350.73074   -368.06663      39457.2 
   79000    313.93098   -1338.5392    421.39017    493.99004    31.182386      39457.2 
   79100    297.58735   -1358.9854    415.62582    394.31385    100.73452      39457.2 
   79200    304.77612   -1376.4376    440.95123    434.50107   -25.232371      39457.2 
   79300     301.0833    -1378.176    432.79782    408.00977    524.46958      39457.2 
   79400    306.32368   -1400.0146    423.53015     400.4594    247.67642      39457.2 
   79500    289.71485   -1432.8271    455.08752    324.54648    400.40423      39457.2 
   79600    304.00777   -1376.2266     411.0554    401.36246    493.89948      39457.2 
   79700    303.22701   -1401.8387    412.07204    373.25737    310.27374      39457.2 
   79800    296.60327   -1418.0715    411.33016    326.50862    471.41367      39457.2 
   79900    305.00335    -1421.871    455.68926     404.8271    347.37556      39457.2 
   80000    296.36797   -1383.5001    462.07005    410.76221    -223.3673      39457.2 
   80100    316.04917   -1360.1091    404.13227    464.68362    243.24641      39457.2 
   80200    296.83958   -1386.3533    425.08855    373.04739    403.30273      39457.2 
   80300    299.29484   -1404.6636    449.35709    390.04221    141.61808      39457.2 
   80400    301.85714   -1376.8449    440.06602     420.0876    446.58877      39457.2 
   80500    299.33671   -1416.5479    423.88025    352.86927     73.46074      39457.2 
   80600    296.17662   -1416.1399    395.42945    310.62171    50.184897      39457.2 
   80700    303.02135   -1378.4939    439.14307    422.74876    42.221057      39457.2 
   80800     305.1423   -1386.3858     434.0068    419.25438    658.78535      39457.2 
   80900    293.99357   -1381.4161    461.68997    401.79304     225.0832      39457.2 
   81000    291.93485   -1406.1393      413.925    320.05079   -351.36771      39457.2 
   81100    305.40193   -1389.9268    423.44859    406.32228    138.36123      39457.2 
   81200    295.04902   -1384.2491    435.22695    377.24137    796.26084      39457.2 
   81300    296.46166   -1403.3257     439.3787    368.66641    90.597394      39457.2 
   81400    300.98369   -1339.8753    450.60487     463.6698   -12.165189      39457.2 
   81500    300.91997   -1370.0807     410.0806    392.65371    55.398085      39457.2 
   81600    306.15128    -1381.791     436.0176    430.39549   -642.38383      39457.2 
   81700    306.28198    -1367.065    432.68924     442.3806   -248.91274      39457.2 
   81800    307.50699   -1386.4927    455.89252    451.66269   -428.95618      39457.2 
   81900    305.56842   -1374.5042    436.88818    435.93284   -29.016676      39457.2 
   82000    296.81504   -1409.2122    415.02882    340.01855    335.19652      39457.2 
   82100    300.59296    -1396.757    425.11757     379.5444    302.87369      39457.2 
   82200    300.91962   -1456.4192    439.68991    335.92293    0.9669229      39457.2 
   82300    301.51509   -1440.1286    421.80917    337.00951   -104.42262      39457.2 
   82400    293.48791   -1376.7983    454.59832    397.04624    5.2166319      39457.2 
   82500    303.94942   -1393.8708    459.41782    431.81834    629.52535      39457.2 
   82600    299.74465   -1390.4364    435.19227    392.12652    262.46931      39457.2 
   82700    311.14205   -1389.7567    468.17016    477.01617    427.35316      39457.2 
   82800    299.43973   -1415.9422    412.54866    342.60647     -180.657      39457.2 
   82900    305.01473   -1390.5187    445.28777    425.82907    182.03113      39457.2 
   83000    304.85941   -1386.7737    435.70741    419.29553   -53.491937      39457.2 
   83100     295.0572   -1366.4997    446.23347    406.03407   -517.09421      39457.2 
   83200    298.81403   -1365.6897    421.64838    399.14617   -282.19971      39457.2 
   83300     299.1549   -1354.0334    461.57786    452.26416   -284.15111      39457.2 
   83400    287.99666   -1348.4487     446.3862    392.50018    41.061066      39457.2 
   83500    299.81087   -1347.5338    465.43308    465.56757    114.65011      39457.2 
   83600    303.69934   -1323.8539    437.15253    478.44587    250.23927      39457.2 
   83700    308.33387   -1350.0994     432.2087    468.08906   -101.49611      39457.2 
   83800    289.81003   -1336.5646    456.94573    423.09509    46.674452      39457.2 
   83900    306.54889   -1376.6275    440.55964    441.88831    171.21983      39457.2 
   84000    290.02933    -1341.881    438.36815     400.1868    528.55965      39457.2 
   84100    305.51223   -1342.4179    463.03443    493.91282    66.524301      39457.2 
   84200    295.17432   -1359.7386    419.78065    386.86874   -46.094934      39457.2 
   84300     301.7159   -1375.8946    484.96128    465.29822    124.47213      39457.2 
   84400     302.2976    -1345.927    456.40886    469.32816   -152.23819      39457.2 
   84500    306.70607   -1360.1976    438.27071    456.73574   -108.54671      39457.2 
   84600    302.06545   -1365.9816    427.68548     419.5067   -575.97286      39457.2 
   84700    282.78245    -1356.672    435.16089    349.61336   -229.19878      39457.2 
   84800    289.74905   -1384.0086    422.24002    340.67124   -145.44543      39457.2 
   84900    290.04905    -1368.679    446.45849    381.56788    77.888968      39457.2 
   85000    286.32049   -1355.5413    474.13777    405.62465    216.02098      39457.2 
   85100    304.58789    -1383.612    443.55205    429.08138    173.83062      39457.2 
   85200    297.12128   -1347.1428    449.10107    437.53675    266.53602      39457.2 
   85300    307.20399   -1376.2895    447.73896    452.35026    215.00104      39457.2 
   85400     300.2921    -1354.819    451.96736    446.97982    16.713189      39457.2 
   85500    291.94605   -1361.6021    448.08131    398.79461    188.69774      39457.2 
   85600    288.71389   -1340.0778    451.97947    409.68834    461.49001      39457.2 
   85700    295.60652   -1324.6046    452.70666    456.87156    355.33294      39457.2 
   85800    305.49768    -1314.368     478.1674    537.03033    283.80502      39457.2 
   85900    292.13725   -1349.6888    451.76021    415.24632  -0.51716863      39457.2 
   86000    308.06148   -1392.9934    452.45637    444.21827    147.21706      39457.2 
   86100    297.66312   -1389.3518    455.84055    404.50276   -625.67973      39457.2 
   86200    294.63074   -1350.7954    449.81346    423.40136   -742.27614      39457.2 
   86300    299.40732   -1344.4984     442.0673     443.4232   -475.62043      39457.2 
   86400    303.77555   -1392.3686    461.19098    434.31223   -384.66421      39457.2 
   86500    290.02053   -1397.5694    454.16971    360.26048   -120.87418      39457.2 
   86600    290.35287   -1376.1597    440.06016    369.05448    92.232321      39457.2 
   86700     308.3493   -1412.8333    448.24696    421.46273    217.68733      39457.2 
   86800    302.07348   -1407.2694    438.72154    389.29103   -97.588742      39457.2 
   86900    299.22711   -1391.8997    439.64603    392.79056   -13.587101      39457.2 
   87000    302.65063    -1446.209    426.76009    340.98426   -1.4662309      39457.2 
   87100     300.8211   -1421.6564    459.48096    390.03392    168.80641      39457.2 
   87200    306.04108   -1394.7941    453.78048    434.65985    131.49326      39457.2 
   87300    293.09478   -1381.1063    448.31938    384.69219    72.532368      39457.2 
   87400    308.63117   -1382.0273      449.296    454.58481    314.18083      39457.2 
   87500    308.81547   -1367.6911    443.64404    464.09749    115.67441      39457.2 
   87600    301.84281   -1421.2165    450.47863    386.06408    138.27869      39457.2 
   87700    305.57361   -1414.4156    437.97363    397.13027    133.33586      39457.2 
   87800    301.17137   -1397.3685    432.48578    388.90109    89.277883      39457.2 
   87900    292.76468   -1351.3206    443.78281    408.45748   -168.20143      39457.2 
   88000    308.60036   -1342.2809    447.30594    492.20266   -325.51957      39457.2 
   88100    298.27786   -1326.9299    465.38186    479.22924   -395.84868      39457.2 
   88200    284.41313    -1365.581    439.22304    352.09651   -660.06274      39457.2 
   88300    299.15963   -1354.3316    452.57281    442.98213   -606.26883      39457.2 
   88400    306.45205   -1374.1208    453.85771    457.25773   -800.40298      39457.2 
   88500    302.15122   -1360.0124    462.61015    460.78608   -431.70097      39457.2 
   88600    298.38444   -1357.6958    442.09824    425.65892   -327.32436      39457.2 
   88700    307.61688    -1317.361    455.50431     520.9001    261.17068      39457.2 
   88800     295.8735   -1328.5552    450.08208    451.49643   -249.92708      39457.2 
   88900    310.43868   -1353.5598    447.98887    489.87007    150.75753      39457.2 
   89000    296.88571   -1386.7767    455.50871    403.25151    102.57954      39457.2 
[...]
  984700    305.25498   -1538.8931    512.82593    346.07272   -133.42394      39457.2 
  984800    291.07483   -1530.4887    529.20514    307.11567    180.16751      39457.2 
  984900    299.20468   -1560.5409    478.20052    262.60305    487.84092      39457.2 
  985000    302.64804   -1523.0595    488.38812    325.75016    89.466914      39457.2 
  985100    299.21409   -1536.9544    479.14901    287.18039    555.33832      39457.2 
  985200    308.92505   -1491.5367    494.66344    391.76381   -355.01405      39457.2 
  985300    291.78786   -1489.3987    503.72912    325.93484   -312.73247      39457.2 
  985400    297.99049   -1470.0372    490.32777    359.77616   -501.19483      39457.2 
  985500    298.09326   -1517.1448    504.85983    327.66261   -619.08488      39457.2 
  985600    300.19886   -1508.7783     516.0447    356.67875   -758.63417      39457.2 
  985700    310.74868   -1539.4962    490.04479    347.38301   -18.528035      39457.2 
  985800    304.59323   -1534.0952    488.22931    323.29945    -200.6404      39457.2 
  985900    285.54463   -1563.9326    494.75772    214.36584    -200.4515      39457.2 
  986000    300.89475   -1558.6373     501.7322    295.63535    230.45782      39457.2 
  986100    294.31808   -1528.9355    510.18217    304.22452    71.896557      39457.2 
  986200    306.00645   -1534.9654     490.5575    331.10993   -338.17805      39457.2 
  986300    311.94383   -1526.5977    499.25828    374.86729   -323.57371      39457.2 
  986400     297.8819   -1569.7445    478.89698    248.14992   -575.50334      39457.2 
  986500     297.5777   -1533.9333    494.02059    297.71734   -986.52711      39457.2 
  986600    293.65265   -1549.3087      490.523    261.20103   -634.67099      39457.2 
  986700    290.93845   -1538.8377    516.97426    285.92278   -586.12677      39457.2 
  986800    307.15383   -1522.4198    501.29315    359.54873    101.92159      39457.2 
  986900    294.93809   -1523.8319    491.29618    293.22914     42.99294      39457.2 
  987000    296.25552   -1524.0948    495.51798    303.10999    585.77744      39457.2 
  987100    298.89829   -1535.1131    476.94808    285.40113    204.20085      39457.2 
  987200     300.2775   -1545.5038    499.02458    303.28667    175.68918      39457.2 
  987300    301.44225   -1542.4847    481.45306     293.9698    284.40534      39457.2 
  987400    292.71135   -1570.2486    509.98682    255.49378    156.12891      39457.2 
  987500    299.17167   -1575.7029    502.01702    271.10917    252.03794      39457.2 
  987600    303.33853   -1540.3548    489.05467    312.22518   -170.28684      39457.2 
  987700    305.46138   -1543.2504    507.68425    337.50153   -29.253103      39457.2 
  987800    297.89015   -1555.3123    500.91033    284.63262   -103.61481      39457.2 
  987900    292.62339   -1527.6532    494.39736    282.10429   -209.41213      39457.2 
  988000    293.40349   -1505.4661     478.8126    292.21329   -403.65423      39457.2 
  988100    311.24204     -1538.88    505.28837    365.46053   -714.09802      39457.2 
  988200    297.01258   -1519.4401    491.22574    306.87546   -256.88969      39457.2 
  988300    302.82387   -1491.0744    486.64775    356.78528    9.2948341      39457.2 
  988400    298.60879   -1491.0508    493.44291    344.65704   -129.80149      39457.2 
  988500    301.98577   -1492.0781    530.26854    395.63506    104.00032      39457.2 
  988600      306.821   -1521.5175    481.35084    339.01259     200.3075      39457.2 
  988700    303.98297   -1507.4215    487.25846    346.25912    184.97805      39457.2 
  988800    301.71901   -1511.7205    510.85075    355.37575    363.82941      39457.2 
  988900    304.53795   -1488.4054    519.46877     399.9802    273.67224      39457.2 
  989000    297.07611   -1504.8914    494.27641    324.76041   -422.37593      39457.2 
  989100    308.77065   -1493.0155    496.48307    391.41063    -199.4468      39457.2 
  989200    308.16417   -1527.7326     481.3346    338.81892   -738.94198      39457.2 
  989300    292.80245   -1517.3178    509.74726    308.59452   -994.61398      39457.2 
  989400    290.91508   -1483.0268    513.30227    337.95668   -310.82298      39457.2 
  989500    293.45674   -1524.0945    495.25506    290.26668   -679.79364      39457.2 
  989600    303.92872   -1453.7168    483.55156    396.01305   -486.99674      39457.2 
  989700    304.12183   -1537.2469    517.75284    347.55226   -553.27244      39457.2 
  989800    294.80563   -1524.9727    503.85316    304.04989   -286.55503      39457.2 
  989900    303.24939   -1502.3336    504.65127    365.44235   -66.662543      39457.2 
  990000    302.75368   -1452.4001    530.09471    438.59104   -301.30365      39457.2 
  990100    300.06635   -1483.7309    496.93451    362.02027     663.1068      39457.2 
  990200    297.86752   -1493.2264     499.9702    345.67659    571.23213      39457.2 
  990300    287.63026   -1480.6224    529.78385    342.07711    287.83691      39457.2 
  990400    308.86441   -1509.2993    502.75063    381.81589    1018.7248      39457.2 
  990500    307.84838   -1478.7038    500.44245    405.53609    420.23314      39457.2 
  990600    304.19873   -1496.6717      491.897    362.61738   -345.56418      39457.2 
  990700    307.11684   -1491.9925    495.81091    384.32751   -44.647077      39457.2 
  990800    306.03589   -1475.3614    525.24514    425.53395   -44.156164      39457.2 
  990900    305.55079   -1483.0872    506.09675    396.47911    117.81344      39457.2 
  991000    296.36661    -1509.327     500.2002    323.05936     242.6552      39457.2 
  991100    304.91976     -1501.77    511.03127    379.89432    62.072089      39457.2 
  991200     290.4428   -1505.7132    507.92921    307.77423    69.403422      39457.2 
  991300    312.24136    -1511.679    507.33454     399.1997    31.886986      39457.2 
  991400    295.42597   -1527.5856     494.5325    294.90483   -141.98616      39457.2 
  991500    298.97689   -1486.0456    497.17227    355.04615   -534.60446      39457.2 
  991600     297.5009   -1490.7897    488.21624     334.7114   -930.61478      39457.2 
  991700    310.10775    -1497.397    505.20352     401.7599   -1093.2077      39457.2 
  991800    298.77269   -1540.1866    501.68451    304.49955   -669.78595      39457.2 
  991900    289.08218   -1504.3535    504.61669    299.70537   -812.96416      39457.2 
  992000    294.22186   -1480.2694    529.53437    371.81034   -180.10475      39457.2 
  992100     294.4052   -1520.5582    512.34694    315.15826   -277.29503      39457.2 
  992200    312.14604   -1483.4934    496.82967    416.45195    262.21268      39457.2 
  992300    306.06703    -1500.295    535.19104    410.68614     522.9289      39457.2 
  992400    311.54138   -1504.4608    501.85202    397.78888    451.89811      39457.2 
  992500    301.21236   -1514.5064    512.64013    352.10182    125.80248      39457.2 
  992600    300.32189   -1532.7132    501.64181    318.89397    436.44396      39457.2 
  992700     301.0464    -1561.555    512.59222    304.25929    339.46428      39457.2 
  992800    295.86955    -1584.343    505.34741    250.95625    363.53124      39457.2 
  992900    306.91364   -1545.5403    485.67544    319.73086    872.14213      39457.2 
  993000    304.08392   -1523.3958    501.17089    344.65104    967.86778      39457.2 
  993100     304.4262   -1548.8608     504.9933    324.54698    319.34384      39457.2 
  993200    308.92598   -1536.5509    493.38334     345.4737    405.94193      39457.2 
  993300    289.95376   -1510.2528    504.88054     297.9877   -498.34321      39457.2 
  993400    304.98695   -1525.8744    514.18811     359.2488    127.65832      39457.2 
  993500    307.48245   -1515.7482    484.96017    351.36449   -184.65179      39457.2 
  993600    294.76083   -1533.3526    519.23798    310.85345   -484.11425      39457.2 
  993700    306.20718   -1542.9825    503.07367    336.51127   -529.11355      39457.2 
  993800    301.25531   -1505.7831    500.97254     349.3506   -266.73865      39457.2 
  993900    303.36969   -1538.6467    505.13816     330.1569   -322.90645      39457.2 
  994000    287.45252   -1503.6976    475.73231    264.15151   -346.14445      39457.2 
  994100    300.21779   -1495.3061    504.75315    358.94444   -293.57807      39457.2 
  994200    292.89484   -1491.1645    488.32681    313.74268   -103.55219      39457.2 
  994300    296.72785   -1511.4861    485.74569    308.06957   -170.40295      39457.2 
  994400    287.62809   -1528.7233     497.5457     261.7284   -328.78587      39457.2 
  994500    288.43104   -1483.7022    503.13644    315.94954    290.07361      39457.2 
  994600    305.69838    -1509.564    490.53556    355.10458    65.268746      39457.2 
  994700    298.16955    -1486.945     520.2613    373.60682   -92.652591      39457.2 
  994800    304.86914   -1499.3563    521.56791    392.61713    70.826963      39457.2 
  994900    302.40713   -1521.5279    468.24884    306.05963    397.89255      39457.2 
  995000    304.50409    -1551.926    512.93696    329.77556    107.09445      39457.2 
  995100    298.88581   -1514.9923    492.72937    321.24715    373.00716      39457.2 
  995200    289.41095   -1499.3006    483.27496    284.89446    194.77996      39457.2 
  995300    296.91098   -1506.8052     487.3307    315.15862    87.947755      39457.2 
  995400    308.08316   -1518.8375     485.4334    351.44865   -313.82418      39457.2 
  995500    290.28353   -1515.9791    514.16793    303.03118    329.50039      39457.2 
  995600    293.20316   -1541.7609    483.58861    259.79399    -17.22596      39457.2 
  995700    284.86712    -1496.647    511.68203    295.53032   -288.33686      39457.2 
  995800    294.67978   -1527.1805    488.92369    286.34697   -301.43266      39457.2 
  995900    307.41753   -1450.3817    519.32911    450.80811    384.86637      39457.2 
  996000    296.83012   -1458.5011    498.97238    374.74091     501.8843      39457.2 
  996100    306.23118   -1481.6149     538.7129      433.626    573.85724      39457.2 
  996200    296.66491   -1491.7206     492.9994    334.80583    297.47129      39457.2 
  996300    300.72138   -1483.0264    498.29028      367.025    207.02126      39457.2 
  996400    302.11978   -1455.7451    495.47821    397.78011   -224.27869      39457.2 
  996500    301.09986   -1492.0728      506.435    367.82459   -8.3020743      39457.2 
  996600    305.44564   -1512.9534    517.32234    377.36585    114.95229      39457.2 
  996700    290.57313   -1527.6232    516.16716    294.68806   -220.11501      39457.2 
  996800    320.42452   -1585.3417    483.10731     338.0935    13.475611      39457.2 
  996900    302.49116   -1553.8304    475.42898    281.31492    381.89847      39457.2 
  997000    301.16584   -1498.1254    519.13149    374.76507    57.359324      39457.2 
  997100    289.31818   -1467.2952    488.33511    321.54295    91.212834      39457.2 
  997200    310.43442   -1484.0662    481.65172    393.00735    70.115066      39457.2 
  997300    306.88227   -1519.3398    496.32594    356.44085   -252.22937      39457.2 
  997400    292.32867   -1497.0322    488.86846    305.87166   -122.63984      39457.2 
  997500     306.0843   -1526.0495    502.53754    352.35579    -215.7219      39457.2 
  997600    303.08432   -1531.3298    499.54838    330.60124   -148.66597      39457.2 
  997700    299.38495   -1550.5818    478.27011    273.44212   -211.08961      39457.2 
  997800    303.17085   -1523.8646    500.75533    339.66238   -174.08605      39457.2 
  997900    304.89318   -1508.2252    503.76945    366.05784   -210.08395      39457.2 
  998000    308.25794   -1529.4368    474.90426    331.10586     431.3529      39457.2 
  998100    288.35833   -1483.7824     520.7274    333.13344    778.37275      39457.2 
  998200    299.97828   -1521.0078    531.74779    359.16081    -51.58626      39457.2 
  998300    299.47672    -1496.851    490.25096    339.56623   -505.71728      39457.2 
  998400    293.49461   -1460.1598    498.80251    357.91901   -757.03175      39457.2 
  998500    300.49567   -1475.8328    497.12527    372.03899   -451.60184      39457.2 
  998600    295.18155      -1460.6    515.27236     381.5316   -79.987791      39457.2 
  998700    302.48532   -1481.3917     494.8241    373.12254   -200.94905      39457.2 
  998800     294.9966    -1477.105    501.26914    350.19201    234.76969      39457.2 
  998900    302.86629   -1501.3579    527.27043    387.31516    366.39614      39457.2 
  999000    301.42981   -1532.7212    483.48543    305.70972    554.66046      39457.2 
  999100    306.82652   -1483.4583    483.52127     379.2671    864.45763      39457.2 
  999200    303.42731   -1518.2351    495.88008    341.56945    623.25736      39457.2 
  999300    291.18663   -1487.8038    499.32225    320.42026    312.46459      39457.2 
  999400    299.14959   -1526.1925    526.79843    345.30176    339.22907      39457.2 
  999500    289.13681   -1474.1735    500.32317    325.83743     458.1016      39457.2 
  999600    289.13736   -1474.3719    522.93696    348.25534    41.117786      39457.2 
  999700    301.90721   -1510.2057      516.022    362.90778     77.52436      39457.2 
  999800    290.00459    -1485.118    476.24499    294.71546   -385.32402      39457.2 
  999900    298.73323   -1455.7117    529.39474    416.50729   -152.89647      39457.2 
 1000000    295.48948   -1488.9448    504.04207    343.34065   -78.901619      39457.2 
 1000100    309.77517   -1528.9147    491.76074    355.30444   -418.33679      39457.2 
 1000200    289.01828   -1513.3589    496.47586    282.27188    -964.0627      39457.2 
 1000300    291.60981   -1518.5634    497.29273    289.53334    -743.0986      39457.2 
 1000400    298.32442   -1511.6779    522.55363    351.86235   -274.89314      39457.2 
 1000500    300.73117   -1506.5069    531.03394     376.3322   -78.793726      39457.2 
 1000600    298.27816   -1523.3928    506.94669    324.33262    637.75765      39457.2 
 1000700    295.36162   -1523.8337     498.0798    301.91483    406.53515      39457.2 
 1000800    302.32494   -1512.0166    498.25403    345.20661    331.15251      39457.2 
 1000900    296.03666   -1478.8062     509.9986    361.89542    387.47583      39457.2 
 1001000    300.30694   -1478.2551      522.902    394.54509   -131.07283      39457.2 
 1001100    294.96508   -1537.8655    501.39162    289.41234    360.88106      39457.2 
 1001200    301.40719   -1524.6452    544.81242    375.01112    52.012809      39457.2 
 1001300    309.13921   -1547.5679     498.5909    340.62278   -170.84287      39457.2 
 1001400    289.09853   -1516.0149    502.86976    286.37056   -26.968735      39457.2 
 1001500    292.61724   -1537.9823    470.13973    247.48997   -661.86046      39457.2 
 1001600    300.71106   -1507.1306    506.13053    350.71467   -350.36716      39457.2 
 1001700    312.10832   -1520.7503    494.01823    376.21409   -301.71997      39457.2 
 1001800    309.98522   -1551.6172    487.03544     328.8209   -276.37993      39457.2 
 1001900     300.7065   -1531.6693    485.05201    305.07696   -336.03246      39457.2 
 1002000    302.33838    -1512.747    504.69709    350.97975   -208.38786      39457.2 
 1002100    288.99421   -1497.2666    499.30841    301.08858   -114.49508      39457.2 
 1002200    295.54726   -1479.3069     523.9857    373.18198   -572.80606      39457.2 
 1002300    293.66105   -1474.6893    494.00764    339.34288   -134.11758      39457.2 
 1002400    299.77057   -1475.9814    491.39223    362.89796   -245.73165      39457.2 
 1002500    309.20369   -1490.9094    530.53168    429.51185    118.45013      39457.2 
 1002600    300.87698   -1497.8112    473.23788    327.88728   -41.410566      39457.2 
 1002700     303.6184   -1474.9424    518.95772     408.7987    650.32717      39457.2 
 1002800    309.86453   -1472.9094     520.4835    440.43418    233.37711      39457.2 
 1002900    292.57401   -1472.2825    506.81307    349.66876    300.34721      39457.2 
 1003000    298.26871   -1481.4877    484.86316    344.11161   -54.365925      39457.2 
 1003100    306.20812   -1488.1533    524.19265    412.46373   -274.40185      39457.2 
 1003200    300.75057   -1498.7397    485.98231    339.13491    339.02179      39457.2 
 1003300    296.51314   -1521.6172    495.51939      306.747    242.01327      39457.2 
 1003400     300.4358   -1523.9521    491.92608     318.4514    78.135934      39457.2 
 1003500    302.58967   -1510.0567    490.57972    340.68223    218.01514      39457.2 
 1003600    305.49055   -1479.0858    509.06627    403.17933   -404.93878      39457.2 
 1003700    294.74103   -1495.6252    462.70662    291.96048   -401.90723      39457.2 
 1003800    299.43383   -1486.5791     502.8013    362.19568   -487.54925      39457.2 
 1003900    307.19035   -1450.1072    501.88928    432.62164   -186.11473      39457.2 
 1004000      303.654   -1479.7307    488.18079    373.39356   -416.47238      39457.2 
 1004100     309.2499   -1510.0465    475.52223    355.57307    31.313759      39457.2 
 1004200    298.19042   -1532.6803    481.68778    289.39181   -379.86695      39457.2 
 1004300    294.87346   -1531.6377    492.97124    286.80792    542.94161      39457.2 
 1004400    295.40015   -1547.6108    486.93099    267.16209    270.88082      39457.2 
 1004500    306.63249   -1521.8567    508.90516    365.38041    313.60572      39457.2 
 1004600     299.8951   -1527.1577    466.20904    287.09824   -66.495087      39457.2 
 1004700    307.59758   -1471.7571    505.39227     416.3052   -131.07012      39457.2 
 1004800    294.55268   -1518.5675    480.88808    286.35303   -95.075278      39457.2 
 1004900    297.65348   -1487.5385    496.39452     346.8267   -411.20614      39457.2 
 1005000    296.03911    -1506.397    501.40117    325.71822   -7.4138612      39457.2 
 1005100    296.60052    -1487.238    495.61894    341.61851   -83.232948      39457.2 
 1005200    302.24529   -1514.3152    484.22009    328.51609    376.66852      39457.2 
 1005300     287.9449   -1516.7311    497.22194    274.82094    284.97313      39457.2 
 1005383    297.32663   -1516.8109    476.28523    295.97582   -470.25419      39457.2 
Loop time of 601.479 on 32 procs for 1000000 steps with 1509 atoms

Performance: 143.646 ns/day, 0.167 hours/ns, 1662.569 timesteps/s
100.0% CPU use with 32 MPI tasks x no OpenMP threads

MPI task timing breakdown:
Section |  min time  |  avg time  |  max time  |%varavg| %total
---------------------------------------------------------------
Pair    | 214.18     | 264.79     | 312.41     | 160.2 | 44.02
Bond    | 1.2986     | 1.5185     | 1.7333     |   9.1 |  0.25
Neigh   | 39.366     | 39.434     | 39.494     |   0.6 |  6.56
Comm    | 236.31     | 283.6      | 333.99     | 154.0 | 47.15
Output  | 0.39103    | 0.41047    | 0.93776    |  14.8 |  0.07
Modify  | 8.0943     | 8.6009     | 9.3344     |  11.2 |  1.43
Other   |            | 3.125      |            |       |  0.52

Nlocal:        47.1562 ave          79 max          14 min
Histogram: 2 2 1 4 6 7 3 4 1 2
Nghost:        1936.66 ave        2072 max        1814 min
Histogram: 11 4 1 0 0 0 0 0 11 5
Neighs:        5128.75 ave       10246 max         928 min
Histogram: 2 3 3 7 7 2 3 2 1 2

Total # of neighbors = 164120
Ave neighs/atom = 108.76077
Ave special neighs/atom = 2.0159046
Neighbor list builds = 49765
Dangerous builds = 0

# Output the system volume
variable v equal vol
print 'The system volume is $v'
The system volume is 39457.1999017272

# Outputs
variable A equal xhi-xlo
variable B equal yhi-ylo
variable C equal zhi-zlo
variable D equal xy
variable E equal xz
variable F equal yz
print 'Lattice vectors'
Lattice vectors
print '$A 0 0'
34.0441180170456 0 0
print '$D $B 0'
0 34.0441180170456 0
print '$E $F $C'
0 0 34.0441180170456
Total wall time: 0:10:05
