LAMMPS data file
 1505 atoms
 1004 bonds
 506 angles
 0 dihedrals
 0 impropers
 4 atom types
 2 bond types
 2 angle types
 0 dihedral types
 1 improper types
 0 15 xlo xhi
 0 15 ylo yhi
 0 15 zlo zhi
 0 0 0 xy xz yz

# Atom types
#
# 1 C_3
# 2 H_
# 3 H__HB
# 4 O_3

# Bond Coeffs
#
# 1 C_3*H_
# 2 O_3*H__HB

# Angle Coeffs
#
# 1 C_3
# 2 O_3

# Dihedral Coeffs
#

# Inversion Coeffs
#
# 1 1

 Masses

 1 12.01
 2 1.01
 3 1.01
 4 16

 Atoms # full

1 1 1 0 2.9146080277285 3.99510422917482 0.936391205772248
2 1 2 0 2.23604796619615 4.75304114619101 0.540536266789287
3 1 2 0 2.32285231588633 3.26714580481288 1.49519557216772
4 1 2 0 3.61085035327145 4.47134421559728 1.62926802704345
5 1 2 0 3.6665187554729 3.36785261264679 -0.175323068250471
6 2 3 0 4.04198961725459 12.4956867149472 12.4751839844976
7 2 4 0 5.00198961725459 12.4956867149472 12.4751839844976
8 2 3 0 5.24198961725459 11.5656867149472 12.4751839844976
9 3 3 0 7.586051006075 2.68271778401919 0.788859376916662
10 3 4 0 8.546051006075 2.68271778401919 0.788859376916662
11 3 3 0 8.786051006075 1.75271778401919 0.788859376916662
12 4 3 0 4.05319158031605 9.69305389485322 0.680400301935151
13 4 4 0 5.01319158031605 9.69305389485322 0.680400301935151
14 4 3 0 5.25319158031605 8.76305389485322 0.680400301935151
15 5 3 0 0.431487393071875 5.2429244857654 10.6089167471509
16 5 4 0 1.39148739307187 5.2429244857654 10.6089167471509
17 5 3 0 1.63148739307187 4.3129244857654 10.6089167471509
18 6 3 0 4.35211659802124 6.71279556857422 7.93950573541224
19 6 4 0 5.31211659802124 6.71279556857422 7.93950573541224
20 6 3 0 5.55211659802124 5.78279556857422 7.93950573541224
21 7 3 0 3.65441344955005 8.75535284093581 12.9824974550866
22 7 4 0 4.61441344955005 8.75535284093581 12.9824974550866
23 7 3 0 4.85441344955005 7.82535284093581 12.9824974550866
24 8 3 0 0.952337022610009 0.571226650327444 7.90163246914744
25 8 4 0 1.91233702261001 0.571226650327444 7.90163246914744
26 8 3 0 2.15233702261001 -0.358773349672556 7.90163246914744
27 9 3 0 5.62338166331872 12.0350452388544 0.119408798636869
28 9 4 0 6.58338166331872 12.0350452388544 0.119408798636869
29 9 3 0 6.82338166331872 11.1050452388544 0.119408798636869
30 10 3 0 9.60947530969977 14.1882491686288 0.817906450247392
31 10 4 0 10.5694753096998 14.1882491686288 0.817906450247392
32 10 3 0 10.8094753096998 13.2582491686288 0.817906450247392
33 11 3 0 7.99287485235371 11.6295990491658 13.823260377394
34 11 4 0 8.95287485235371 11.6295990491658 13.823260377394
35 11 3 0 9.19287485235371 10.6995990491658 13.823260377394
36 12 3 0 11.3085857934505 2.14797170990147 10.9952474338934
37 12 4 0 12.2685857934505 2.14797170990147 10.9952474338934
38 12 3 0 12.5085857934505 1.21797170990147 10.9952474338934
39 13 3 0 1.87161753812805 6.85930600780062 2.18051437055692
40 13 4 0 2.83161753812805 6.85930600780062 2.18051437055692
41 13 3 0 3.07161753812805 5.92930600780062 2.18051437055692
42 14 3 0 9.51354431963526 10.8543055590149 6.5859407291282
43 14 4 0 10.4735443196353 10.8543055590149 6.5859407291282
44 14 3 0 10.7135443196353 9.9243055590149 6.5859407291282
45 15 3 0 1.96328505917452 9.24293316359632 14.2948843992781
46 15 4 0 2.92328505917452 9.24293316359632 14.2948843992781
47 15 3 0 3.16328505917452 8.31293316359632 14.2948843992781
48 16 3 0 9.48982754649594 0.626510281991214 3.00551266875118
49 16 4 0 10.4498275464959 0.626510281991214 3.00551266875118
50 16 3 0 10.6898275464959 -0.303489718008786 3.00551266875118
51 17 3 0 13.6217645758018 14.3756901558395 1.23626794433221
52 17 4 0 14.5817645758018 14.3756901558395 1.23626794433221
53 17 3 0 14.8217645758018 13.4456901558395 1.23626794433221
54 18 3 0 1.99452458691783 10.6982885503117 4.78406729875132
55 18 4 0 2.95452458691783 10.6982885503117 4.78406729875132
56 18 3 0 3.19452458691783 9.7682885503117 4.78406729875132
57 19 3 0 4.10644861447625 4.73520906450227 10.5957367317751
58 19 4 0 5.06644861447625 4.73520906450227 10.5957367317751
59 19 3 0 5.30644861447625 3.80520906450227 10.5957367317751
60 20 3 0 12.0832312192954 7.88253162912093 11.7886141058989
61 20 4 0 13.0432312192954 7.88253162912093 11.7886141058989
62 20 3 0 13.2832312192954 6.95253162912093 11.7886141058989
63 21 3 0 7.82770095320419 14.334066288257 6.23727642931044
64 21 4 0 8.78770095320418 14.334066288257 6.23727642931044
65 21 3 0 9.02770095320419 13.404066288257 6.23727642931044
66 22 3 0 8.85903062459081 5.42289909365587 7.43470710818656
67 22 4 0 9.81903062459081 5.42289909365587 7.43470710818656
68 22 3 0 10.0590306245908 4.49289909365587 7.43470710818656
69 23 3 0 7.0663317145966 10.8516209436953 3.0454990058206
70 23 4 0 8.0263317145966 10.8516209436953 3.0454990058206
71 23 3 0 8.2663317145966 9.92162094369531 3.0454990058206
72 24 3 0 13.8713885661867 5.67120413918979 2.58046485017985
73 24 4 0 14.8313885661867 5.67120413918979 2.58046485017985
74 24 3 0 15.0713885661867 4.74120413918979 2.58046485017985
75 25 3 0 9.91386006862856 3.5254287758749 3.28709092922509
76 25 4 0 10.8738600686286 3.5254287758749 3.28709092922509
77 25 3 0 11.1138600686286 2.5954287758749 3.28709092922509
78 26 3 0 7.94904395981692 1.98528690421022 11.0073410812765
79 26 4 0 8.90904395981692 1.98528690421022 11.0073410812765
80 26 3 0 9.14904395981692 1.05528690421022 11.0073410812765
81 27 3 0 1.98380664733239 12.9117421169672 1.63331574993208
82 27 4 0 2.94380664733239 12.9117421169672 1.63331574993208
83 27 3 0 3.18380664733239 11.9817421169672 1.63331574993208
84 28 3 0 9.03922656711191 3.87931576272473 4.76454020245001
85 28 4 0 9.99922656711191 3.87931576272473 4.76454020245001
86 28 3 0 10.2392265671119 2.94931576272473 4.76454020245001
87 29 3 0 -0.300107963411137 9.18817332753912 2.6578718656674
88 29 4 0 0.659892036588863 9.18817332753912 2.6578718656674
89 29 3 0 0.899892036588863 8.25817332753912 2.6578718656674
90 30 3 0 10.0459180811606 10.9221458439156 9.87168449442834
91 30 4 0 11.0059180811606 10.9221458439156 9.87168449442834
92 30 3 0 11.2459180811606 9.99214584391564 9.87168449442834
93 31 3 0 2.8068356942106 7.10981577326544 5.77692052815109
94 31 4 0 3.7668356942106 7.10981577326544 5.77692052815109
95 31 3 0 4.0068356942106 6.17981577326544 5.77692052815109
96 32 3 0 12.3614708105754 1.76124023896642 14.7233283414971
97 32 4 0 13.3214708105754 1.76124023896642 14.7233283414971
98 32 3 0 13.5614708105754 0.83124023896642 14.7233283414971
99 33 3 0 13.0658473998494 7.20692069077864 9.35574792092666
100 33 4 0 14.0258473998494 7.20692069077864 9.35574792092666
101 33 3 0 14.2658473998494 6.27692069077864 9.35574792092666
102 34 3 0 11.9946772260312 5.02593895577826 7.22517289104871
103 34 4 0 12.9546772260312 5.02593895577826 7.22517289104871
104 34 3 0 13.1946772260312 4.09593895577826 7.22517289104871
105 35 3 0 11.3965673970245 12.1813228881825 7.03100427053869
106 35 4 0 12.3565673970245 12.1813228881825 7.03100427053869
107 35 3 0 12.5965673970245 11.2513228881825 7.03100427053869
108 36 3 0 2.1556206552498 5.36042881472036 6.77364518051036
109 36 4 0 3.1156206552498 5.36042881472036 6.77364518051036
110 36 3 0 3.3556206552498 4.43042881472036 6.77364518051036
111 37 3 0 0.881745884399861 9.34481431654654 11.6160417313222
112 37 4 0 1.84174588439986 9.34481431654654 11.6160417313222
113 37 3 0 2.08174588439986 8.41481431654655 11.6160417313222
114 38 3 0 0.67492878690362 2.50220288214274 3.49926828872412
115 38 4 0 1.63492878690362 2.50220288214274 3.49926828872412
116 38 3 0 1.87492878690362 1.57220288214274 3.49926828872412
117 39 3 0 13.298513004994 0.651870149131864 2.72681409493089
118 39 4 0 14.258513004994 0.651870149131864 2.72681409493089
119 39 3 0 14.498513004994 -0.278129850868136 2.72681409493089
120 40 3 0 2.68084859984927 1.31033694179729 8.1612047937233
121 40 4 0 3.64084859984927 1.31033694179729 8.1612047937233
122 40 3 0 3.88084859984927 0.380336941797286 8.1612047937233
123 41 3 0 6.50666420624591 3.88764415093698 2.63436816749163
124 41 4 0 7.46666420624591 3.88764415093698 2.63436816749163
125 41 3 0 7.70666420624591 2.95764415093698 2.63436816749163
126 42 3 0 9.604295143364 6.92134206573479 10.0522369297687
127 42 4 0 10.564295143364 6.92134206573479 10.0522369297687
128 42 3 0 10.804295143364 5.99134206573479 10.0522369297687
129 43 3 0 11.0608622005396 5.15809909132309 12.3275999736506
130 43 4 0 12.0208622005396 5.15809909132309 12.3275999736506
131 43 3 0 12.2608622005396 4.22809909132309 12.3275999736506
132 44 3 0 14.2306483355071 14.4079084908031 13.6311904981267
133 44 4 0 15.1906483355071 14.4079084908031 13.6311904981267
134 44 3 0 15.4306483355071 13.4779084908031 13.6311904981267
135 45 3 0 11.5566383516137 8.34943846258335 11.4188291109167
136 45 4 0 12.5166383516137 8.34943846258335 11.4188291109167
137 45 3 0 12.7566383516137 7.41943846258335 11.4188291109167
138 46 3 0 9.74080542029813 0.730890387613326 8.64234981941991
139 46 4 0 10.7008054202981 0.730890387613326 8.64234981941991
140 46 3 0 10.9408054202981 -0.199109612386674 8.64234981941991
141 47 3 0 11.5933423179388 15.1091396521684 4.44148172624409
142 47 4 0 12.5533423179388 15.1091396521684 4.44148172624409
143 47 3 0 12.7933423179388 14.1791396521684 4.44148172624409
144 48 3 0 0.433564886189997 7.69703747862019 7.07564361859113
145 48 4 0 1.39356488619 7.69703747862019 7.07564361859113
146 48 3 0 1.63356488619 6.76703747862019 7.07564361859113
147 49 3 0 9.61863854943775 2.28048796107993 14.3735778343398
148 49 4 0 10.5786385494377 2.28048796107993 14.3735778343398
149 49 3 0 10.8186385494377 1.35048796107993 14.3735778343398
150 50 3 0 4.86153899386525 6.97444204398431 2.34533293638378
151 50 4 0 5.82153899386525 6.97444204398431 2.34533293638378
152 50 3 0 6.06153899386525 6.04444204398431 2.34533293638378
153 51 3 0 13.3762948906235 8.6019536717236 7.52877381630242
154 51 4 0 14.3362948906235 8.6019536717236 7.52877381630242
155 51 3 0 14.5762948906235 7.6719536717236 7.52877381630242
156 52 3 0 13.2988254858367 14.6663271930907 11.8781711999327
157 52 4 0 14.2588254858367 14.6663271930907 11.8781711999327
158 52 3 0 14.4988254858367 13.7363271930907 11.8781711999327
159 53 3 0 6.62474718337879 7.65944110154174 4.99681322369725
160 53 4 0 7.58474718337879 7.65944110154174 4.99681322369725
161 53 3 0 7.82474718337879 6.72944110154174 4.99681322369725
162 54 3 0 8.85921901834197 6.6907480270043 3.05173034314066
163 54 4 0 9.81921901834197 6.6907480270043 3.05173034314066
164 54 3 0 10.059219018342 5.7607480270043 3.05173034314066
165 55 3 0 4.91317187014036 11.6626290631853 9.21464258339256
166 55 4 0 5.87317187014036 11.6626290631853 9.21464258339256
167 55 3 0 6.11317187014036 10.7326290631853 9.21464258339256
168 56 3 0 2.92193287678063 3.26938100665808 7.74065610487014
169 56 4 0 3.88193287678063 3.26938100665808 7.74065610487014
170 56 3 0 4.12193287678063 2.33938100665808 7.74065610487014
171 57 3 0 6.33455104121938 0.701267309896648 10.4832897672895
172 57 4 0 7.29455104121938 0.701267309896648 10.4832897672895
173 57 3 0 7.53455104121938 -0.228732690103352 10.4832897672895
174 58 3 0 3.02025677447207 7.68122101592831 3.35881513659842
175 58 4 0 3.98025677447207 7.68122101592831 3.35881513659842
176 58 3 0 4.22025677447207 6.75122101592831 3.35881513659842
177 59 3 0 7.12729493781924 8.62205839640461 10.5963263986632
178 59 4 0 8.08729493781924 8.62205839640461 10.5963263986632
179 59 3 0 8.32729493781924 7.69205839640461 10.5963263986632
180 60 3 0 9.89258879606612 9.96212595416233 7.89623090531677
181 60 4 0 10.8525887960661 9.96212595416233 7.89623090531677
182 60 3 0 11.0925887960661 9.03212595416233 7.89623090531677
183 61 3 0 3.27764648987912 8.94901252974756 9.47659369907342
184 61 4 0 4.23764648987912 8.94901252974756 9.47659369907342
185 61 3 0 4.47764648987912 8.01901252974756 9.47659369907342
186 62 3 0 11.4828592997231 6.05938892037608 12.729220292531
187 62 4 0 12.4428592997231 6.05938892037608 12.729220292531
188 62 3 0 12.6828592997231 5.12938892037608 12.729220292531
189 63 3 0 7.03590399513021 7.7100352434814 0.763704153941944
190 63 4 0 7.99590399513021 7.7100352434814 0.763704153941944
191 63 3 0 8.23590399513021 6.7800352434814 0.763704153941944
192 64 3 0 12.4127466561925 4.97191624524072 3.38259728159755
193 64 4 0 13.3727466561925 4.97191624524072 3.38259728159755
194 64 3 0 13.6127466561925 4.04191624524072 3.38259728159755
195 65 3 0 -0.195149220088497 5.94602453563362 3.85920052416623
196 65 4 0 0.764850779911503 5.94602453563362 3.85920052416623
197 65 3 0 1.0048507799115 5.01602453563362 3.85920052416623
198 66 3 0 6.85784392917529 0.979409765396267 5.80957040539943
199 66 4 0 7.81784392917529 0.979409765396267 5.80957040539943
200 66 3 0 8.05784392917529 0.0494097653962671 5.80957040539943
201 67 3 0 10.7835634953529 4.54949330346659 6.29658494959585
202 67 4 0 11.7435634953529 4.54949330346659 6.29658494959585
203 67 3 0 11.9835634953529 3.61949330346659 6.29658494959585
204 68 3 0 11.3742932891194 13.763165248502 0.140363392420113
205 68 4 0 12.3342932891194 13.763165248502 0.140363392420113
206 68 3 0 12.5742932891194 12.833165248502 0.140363392420113
207 69 3 0 11.4935883627925 5.95852221868932 5.53644444560632
208 69 4 0 12.4535883627925 5.95852221868932 5.53644444560632
209 69 3 0 12.6935883627925 5.02852221868932 5.53644444560632
210 70 3 0 -0.192293603466824 7.99364386283793 0.976145470049232
211 70 4 0 0.767706396533176 7.99364386283793 0.976145470049232
212 70 3 0 1.00770639653318 7.06364386283793 0.976145470049232
213 71 3 0 12.7896637776587 4.91714795044623 3.64861810812727
214 71 4 0 13.7496637776587 4.91714795044623 3.64861810812727
215 71 3 0 13.9896637776587 3.98714795044623 3.64861810812727
216 72 3 0 2.55289745095186 7.77478829183616 7.91401957045309
217 72 4 0 3.51289745095186 7.77478829183616 7.91401957045309
218 72 3 0 3.75289745095186 6.84478829183616 7.91401957045309
219 73 3 0 -0.101045558257028 4.37307028257288 3.79559959634207
220 73 4 0 0.858954441742972 4.37307028257288 3.79559959634207
221 73 3 0 1.09895444174297 3.44307028257288 3.79559959634207
222 74 3 0 4.2066860622447 4.51619240729138 14.0723584766965
223 74 4 0 5.1666860622447 4.51619240729138 14.0723584766965
224 74 3 0 5.4066860622447 3.58619240729138 14.0723584766965
225 75 3 0 5.2548718875926 1.79556105559692 3.33626617211848
226 75 4 0 6.2148718875926 1.79556105559692 3.33626617211848
227 75 3 0 6.4548718875926 0.865561055596918 3.33626617211848
228 76 3 0 4.87345011133701 1.32013813866302 5.69220371427946
229 76 4 0 5.83345011133701 1.32013813866302 5.69220371427946
230 76 3 0 6.07345011133701 0.390138138663024 5.69220371427946
231 77 3 0 11.6522045333125 1.31366309750825 9.50697303749621
232 77 4 0 12.6122045333125 1.31366309750825 9.50697303749621
233 77 3 0 12.8522045333125 0.383663097508252 9.50697303749621
234 78 3 0 -0.459919379353523 0.859951262073591 10.7713994337246
235 78 4 0 0.500080620646477 0.859951262073591 10.7713994337246
236 78 3 0 0.740080620646477 -0.0700487379264087 10.7713994337246
237 79 3 0 8.83307115102187 1.73521264497191 8.66896725492552
238 79 4 0 9.79307115102187 1.73521264497191 8.66896725492552
239 79 3 0 10.0330711510219 0.805212644971907 8.66896725492552
240 80 3 0 8.18869371243752 2.45718022267334 8.77996988478117
241 80 4 0 9.14869371243753 2.45718022267334 8.77996988478117
242 80 3 0 9.38869371243753 1.52718022267334 8.77996988478117
243 81 3 0 9.70180335964076 2.40343344438821 7.98434775439091
244 81 4 0 10.6618033596408 2.40343344438821 7.98434775439091
245 81 3 0 10.9018033596408 1.47343344438821 7.98434775439091
246 82 3 0 8.88770749719813 1.11565408803523 6.07786910841241
247 82 4 0 9.84770749719813 1.11565408803523 6.07786910841241
248 82 3 0 10.0877074971981 0.185654088035226 6.07786910841241
249 83 3 0 9.10109975768253 5.14923426130786 2.70953806000762
250 83 4 0 10.0610997576825 5.14923426130786 2.70953806000762
251 83 3 0 10.3010997576825 4.21923426130787 2.70953806000762
252 84 3 0 4.72116350007243 12.1857331278175 7.45082085253671
253 84 4 0 5.68116350007243 12.1857331278175 7.45082085253671
254 84 3 0 5.92116350007243 11.2557331278175 7.45082085253671
255 85 3 0 0.295508640557528 9.52364336274564 7.96491246088408
256 85 4 0 1.25550864055753 9.52364336274564 7.96491246088408
257 85 3 0 1.49550864055753 8.59364336274564 7.96491246088408
258 86 3 0 5.90645170697942 13.6303897206113 4.04604815295897
259 86 4 0 6.86645170697942 13.6303897206113 4.04604815295897
260 86 3 0 7.10645170697942 12.7003897206113 4.04604815295897
261 87 3 0 13.5873544080835 8.45599645207636 6.63836899562739
262 87 4 0 14.5473544080835 8.45599645207636 6.63836899562739
263 87 3 0 14.7873544080835 7.52599645207636 6.63836899562739
264 88 3 0 7.32853979148902 10.2575356296171 2.67838717787527
265 88 4 0 8.28853979148902 10.2575356296171 2.67838717787527
266 88 3 0 8.52853979148902 9.32753562961705 2.67838717787527
267 89 3 0 8.54412342349067 2.28030212031677 4.62718136259355
268 89 4 0 9.50412342349067 2.28030212031677 4.62718136259355
269 89 3 0 9.74412342349067 1.35030212031677 4.62718136259355
270 90 3 0 6.39783117614687 5.80895774922334 2.79329905053601
271 90 4 0 7.35783117614687 5.80895774922334 2.79329905053601
272 90 3 0 7.59783117614687 4.87895774922334 2.79329905053601
273 91 3 0 4.3794806480594 14.0924584147893 12.9306363954674
274 91 4 0 5.3394806480594 14.0924584147893 12.9306363954674
275 91 3 0 5.5794806480594 13.1624584147893 12.9306363954674
276 92 3 0 4.22251868454739 2.19458326389082 12.4130589526612
277 92 4 0 5.18251868454739 2.19458326389082 12.4130589526612
278 92 3 0 5.42251868454739 1.26458326389082 12.4130589526612
279 93 3 0 1.51027325235307 9.13524371845648 9.88033663365059
280 93 4 0 2.47027325235307 9.13524371845648 9.88033663365059
281 93 3 0 2.71027325235307 8.20524371845648 9.88033663365059
282 94 3 0 11.5740119134728 2.42601299233735 2.99528885283507
283 94 4 0 12.5340119134728 2.42601299233735 2.99528885283507
284 94 3 0 12.7740119134728 1.49601299233735 2.99528885283507
285 95 3 0 10.972920854548 3.75966923235916 0.796856487868354
286 95 4 0 11.932920854548 3.75966923235916 0.796856487868354
287 95 3 0 12.172920854548 2.82966923235916 0.796856487868354
288 96 3 0 4.19388554451987 10.6006308707315 10.1358205347788
289 96 4 0 5.15388554451987 10.6006308707315 10.1358205347788
290 96 3 0 5.39388554451987 9.67063087073155 10.1358205347788
291 97 3 0 3.5712443226669 6.07600563130341 0.30980286304839
292 97 4 0 4.5312443226669 6.07600563130341 0.30980286304839
293 97 3 0 4.7712443226669 5.14600563130341 0.30980286304839
294 98 3 0 9.86056222856976 7.87259192130528 12.4650217895396
295 98 4 0 10.8205622285698 7.87259192130528 12.4650217895396
296 98 3 0 11.0605622285698 6.94259192130528 12.4650217895396
297 99 3 0 7.29040045917034 0.858291620798409 7.46331166592427
298 99 4 0 8.25040045917034 0.858291620798409 7.46331166592427
299 99 3 0 8.49040045917034 -0.0717083792015911 7.46331166592427
300 100 3 0 14.0018532802071 9.33559441514313 2.49206853797659
301 100 4 0 14.9618532802071 9.33559441514313 2.49206853797659
302 100 3 0 15.2018532802071 8.40559441514313 2.49206853797659
303 101 3 0 6.38411294479854 0.613453194210306 10.8179011708125
304 101 4 0 7.34411294479854 0.613453194210306 10.8179011708125
305 101 3 0 7.58411294479854 -0.316546805789694 10.8179011708125
306 102 3 0 1.20654888960533 9.24332206993364 5.08886683615856
307 102 4 0 2.16654888960533 9.24332206993364 5.08886683615856
308 102 3 0 2.40654888960533 8.31332206993364 5.08886683615856
309 103 3 0 4.98567634189501 3.08900711633265 0.999713296769187
310 103 4 0 5.94567634189501 3.08900711633265 0.999713296769187
311 103 3 0 6.18567634189501 2.15900711633265 0.999713296769187
312 104 3 0 6.09257178308442 6.62613148143515 13.9543453452643
313 104 4 0 7.05257178308442 6.62613148143515 13.9543453452643
314 104 3 0 7.29257178308442 5.69613148143515 13.9543453452643
315 105 3 0 7.80958528208546 7.77782119269483 6.46793458960019
316 105 4 0 8.76958528208546 7.77782119269483 6.46793458960019
317 105 3 0 9.00958528208546 6.84782119269483 6.46793458960019
318 106 3 0 6.14976565397345 7.65082768321969 8.8270680361893
319 106 4 0 7.10976565397345 7.65082768321969 8.8270680361893
320 106 3 0 7.34976565397345 6.72082768321969 8.8270680361893
321 107 3 0 1.57962663841434 12.8753196324129 3.66735101910308
322 107 4 0 2.53962663841434 12.8753196324129 3.66735101910308
323 107 3 0 2.77962663841434 11.9453196324129 3.66735101910308
324 108 3 0 9.37907381027006 10.2856670848001 12.0178034843411
325 108 4 0 10.3390738102701 10.2856670848001 12.0178034843411
326 108 3 0 10.5790738102701 9.35566708480008 12.0178034843411
327 109 3 0 9.09136905960739 11.5554187555704 7.78107842663303
328 109 4 0 10.0513690596074 11.5554187555704 7.78107842663303
329 109 3 0 10.2913690596074 10.6254187555704 7.78107842663303
330 110 3 0 14.242589268107 11.9205543507729 8.48984610289335
331 110 4 0 15.202589268107 11.9205543507729 8.48984610289335
332 110 3 0 15.442589268107 10.9905543507729 8.48984610289335
333 111 3 0 3.03226052943617 10.1840882985294 14.5748733181972
334 111 4 0 3.99226052943617 10.1840882985294 14.5748733181972
335 111 3 0 4.23226052943617 9.25408829852939 14.5748733181972
336 112 3 0 12.3275226847921 14.7157032454293 13.9898920885753
337 112 4 0 13.2875226847921 14.7157032454293 13.9898920885753
338 112 3 0 13.5275226847921 13.7857032454293 13.9898920885753
339 113 3 0 6.06408100968227 8.06284004979767 1.21719876187854
340 113 4 0 7.02408100968227 8.06284004979767 1.21719876187854
341 113 3 0 7.26408100968227 7.13284004979767 1.21719876187854
342 114 3 0 3.23383512717672 4.27131053450517 8.69177187443711
343 114 4 0 4.19383512717672 4.27131053450517 8.69177187443711
344 114 3 0 4.43383512717672 3.34131053450517 8.69177187443711
345 115 3 0 6.26799337609671 13.4552882045414 3.99286649306305
346 115 4 0 7.22799337609671 13.4552882045414 3.99286649306305
347 115 3 0 7.46799337609671 12.5252882045414 3.99286649306305
348 116 3 0 8.5891129430104 6.79605652619153 1.57383192563429
349 116 4 0 9.5491129430104 6.79605652619153 1.57383192563429
350 116 3 0 9.78911294301041 5.86605652619153 1.57383192563429
351 117 3 0 11.0909164538328 5.73045573238283 6.9530144194141
352 117 4 0 12.0509164538328 5.73045573238283 6.9530144194141
353 117 3 0 12.2909164538328 4.80045573238283 6.9530144194141
354 118 3 0 11.6620096277632 13.0371289413329 0.46300541376695
355 118 4 0 12.6220096277632 13.0371289413329 0.46300541376695
356 118 3 0 12.8620096277632 12.1071289413329 0.46300541376695
357 119 3 0 6.29012138044462 8.05756285944022 10.0451687013265
358 119 4 0 7.25012138044462 8.05756285944022 10.0451687013265
359 119 3 0 7.49012138044462 7.12756285944022 10.0451687013265
360 120 3 0 7.13566530539654 11.6799484989047 12.7644392929506
361 120 4 0 8.09566530539654 11.6799484989047 12.7644392929506
362 120 3 0 8.33566530539654 10.7499484989047 12.7644392929506
363 121 3 0 5.87984015277587 13.7659239074588 11.3500461971853
364 121 4 0 6.83984015277587 13.7659239074588 11.3500461971853
365 121 3 0 7.07984015277587 12.8359239074588 11.3500461971853
366 122 3 0 10.4136603853852 9.26507112145424 6.67006862349808
367 122 4 0 11.3736603853852 9.26507112145424 6.67006862349808
368 122 3 0 11.6136603853852 8.33507112145424 6.67006862349808
369 123 3 0 1.26488962487318 1.18791727622971 14.1669890424237
370 123 4 0 2.22488962487318 1.18791727622971 14.1669890424237
371 123 3 0 2.46488962487318 0.257917276229709 14.1669890424237
372 124 3 0 0.405391860259697 2.5886025761161 3.83356553851627
373 124 4 0 1.3653918602597 2.5886025761161 3.83356553851627
374 124 3 0 1.6053918602597 1.6586025761161 3.83356553851627
375 125 3 0 4.45353104660288 6.587368622832 6.04193067876622
376 125 4 0 5.41353104660288 6.587368622832 6.04193067876622
377 125 3 0 5.65353104660288 5.657368622832 6.04193067876622
378 126 3 0 11.9122513958439 13.6855291381385 6.2947186245583
379 126 4 0 12.8722513958439 13.6855291381385 6.2947186245583
380 126 3 0 13.1122513958439 12.7555291381385 6.2947186245583
381 127 3 0 6.57433776112273 12.1486338534765 14.0448567818385
382 127 4 0 7.53433776112273 12.1486338534765 14.0448567818385
383 127 3 0 7.77433776112273 11.2186338534765 14.0448567818385
384 128 3 0 7.05507624705322 11.5900916819833 10.6585112283938
385 128 4 0 8.01507624705322 11.5900916819833 10.6585112283938
386 128 3 0 8.25507624705322 10.6600916819833 10.6585112283938
387 129 3 0 3.3311023986619 4.73424770561047 0.184396438999102
388 129 4 0 4.2911023986619 4.73424770561047 0.184396438999102
389 129 3 0 4.5311023986619 3.80424770561047 0.184396438999102
390 130 3 0 0.654460273655131 2.14759312727489 11.6456327028573
391 130 4 0 1.61446027365513 2.14759312727489 11.6456327028573
392 130 3 0 1.85446027365513 1.21759312727489 11.6456327028573
393 131 3 0 7.78936217349954 4.48563831666484 4.69237256445922
394 131 4 0 8.74936217349954 4.48563831666484 4.69237256445922
395 131 3 0 8.98936217349954 3.55563831666484 4.69237256445922
396 132 3 0 7.08118490452878 0.806335056377575 6.30337795126252
397 132 4 0 8.04118490452878 0.806335056377575 6.30337795126252
398 132 3 0 8.28118490452878 -0.123664943622425 6.30337795126252
399 133 3 0 14.2600783360843 13.7357865929976 11.8264065147378
400 133 4 0 15.2200783360843 13.7357865929976 11.8264065147378
401 133 3 0 15.4600783360843 12.8057865929976 11.8264065147378
402 134 3 0 13.4809653698187 5.50658747594804 8.26376592856832
403 134 4 0 14.4409653698187 5.50658747594804 8.26376592856832
404 134 3 0 14.6809653698187 4.57658747594804 8.26376592856832
405 135 3 0 2.71027975643054 10.8459044368379 10.3840718208812
406 135 4 0 3.67027975643054 10.8459044368379 10.3840718208812
407 135 3 0 3.91027975643054 9.91590443683788 10.3840718208812
408 136 3 0 2.64417608312331 12.9258683933318 11.8769840011373
409 136 4 0 3.60417608312331 12.9258683933318 11.8769840011373
410 136 3 0 3.84417608312331 11.9958683933318 11.8769840011373
411 137 3 0 8.83230245017447 13.3789494905528 13.9087228523567
412 137 4 0 9.79230245017447 13.3789494905528 13.9087228523567
413 137 3 0 10.0323024501745 12.4489494905528 13.9087228523567
414 138 3 0 5.90977069965564 6.08769670635462 0.479538106592372
415 138 4 0 6.86977069965564 6.08769670635462 0.479538106592372
416 138 3 0 7.10977069965564 5.15769670635462 0.479538106592372
417 139 3 0 -0.316800467697903 0.351687147459015 9.29584737983532
418 139 4 0 0.643199532302096 0.351687147459015 9.29584737983532
419 139 3 0 0.883199532302096 -0.578312852540985 9.29584737983532
420 140 3 0 13.1126046208385 12.869481797507 8.85778873809613
421 140 4 0 14.0726046208385 12.869481797507 8.85778873809613
422 140 3 0 14.3126046208385 11.939481797507 8.85778873809613
423 141 3 0 1.4622009596508 8.50806592422538 5.82085256930441
424 141 4 0 2.4222009596508 8.50806592422538 5.82085256930441
425 141 3 0 2.6622009596508 7.57806592422537 5.82085256930441
426 142 3 0 7.67838366955519 3.50674212951213 3.33583751460537
427 142 4 0 8.63838366955519 3.50674212951213 3.33583751460537
428 142 3 0 8.87838366955519 2.57674212951213 3.33583751460537
429 143 3 0 11.7154024382774 12.0271224474441 13.1993209035136
430 143 4 0 12.6754024382774 12.0271224474441 13.1993209035136
431 143 3 0 12.9154024382774 11.0971224474441 13.1993209035136
432 144 3 0 10.4053774899524 9.76662011974491 1.88573065912351
433 144 4 0 11.3653774899524 9.76662011974491 1.88573065912351
434 144 3 0 11.6053774899524 8.83662011974491 1.88573065912351
435 145 3 0 10.2735220330954 13.1495751165226 6.40211493708193
436 145 4 0 11.2335220330954 13.1495751165226 6.40211493708193
437 145 3 0 11.4735220330954 12.2195751165226 6.40211493708193
438 146 3 0 -0.646378328818828 6.94014893652871 3.48344313330017
439 146 4 0 0.313621671181172 6.94014893652871 3.48344313330017
440 146 3 0 0.553621671181172 6.01014893652871 3.48344313330017
441 147 3 0 9.90097394722514 6.65858379722573 14.8445375240408
442 147 4 0 10.8609739472251 6.65858379722573 14.8445375240408
443 147 3 0 11.1009739472251 5.72858379722573 14.8445375240408
444 148 3 0 9.36419640362263 14.0249219284765 14.6764430694748
445 148 4 0 10.3241964036226 14.0249219284765 14.6764430694748
446 148 3 0 10.5641964036226 13.0949219284765 14.6764430694748
447 149 3 0 10.8410935608856 4.0371025928203 10.7414903200697
448 149 4 0 11.8010935608856 4.0371025928203 10.7414903200697
449 149 3 0 12.0410935608856 3.1071025928203 10.7414903200697
450 150 3 0 -0.566475765807554 7.97049358062446 8.08684344752692
451 150 4 0 0.393524234192446 7.97049358062446 8.08684344752692
452 150 3 0 0.633524234192446 7.04049358062446 8.08684344752692
453 151 3 0 14.2732546669152 5.96796782029793 6.02962271310389
454 151 4 0 15.2332546669152 5.96796782029793 6.02962271310389
455 151 3 0 15.4732546669152 5.03796782029793 6.02962271310389
456 152 3 0 1.20181940772571 4.64774598292075 11.8565422226675
457 152 4 0 2.16181940772571 4.64774598292075 11.8565422226675
458 152 3 0 2.40181940772571 3.71774598292075 11.8565422226675
459 153 3 0 4.32776317393407 4.55562570638955 7.33809523866512
460 153 4 0 5.28776317393407 4.55562570638955 7.33809523866512
461 153 3 0 5.52776317393407 3.62562570638955 7.33809523866512
462 154 3 0 7.03597933097743 3.53093776427209 8.96665973123163
463 154 4 0 7.99597933097743 3.53093776427209 8.96665973123163
464 154 3 0 8.23597933097743 2.60093776427209 8.96665973123163
465 155 3 0 9.22459106354043 2.48614247463644 5.60044609825127
466 155 4 0 10.1845910635404 2.48614247463644 5.60044609825127
467 155 3 0 10.4245910635404 1.55614247463644 5.60044609825127
468 156 3 0 6.46255427316763 9.25821320543997 12.2447175392881
469 156 4 0 7.42255427316763 9.25821320543997 12.2447175392881
470 156 3 0 7.66255427316763 8.32821320543997 12.2447175392881
471 157 3 0 1.68377685986459 12.291124660233 5.47424239106476
472 157 4 0 2.64377685986459 12.291124660233 5.47424239106476
473 157 3 0 2.88377685986459 11.361124660233 5.47424239106476
474 158 3 0 13.3504328357242 11.9641505570058 5.30914463452064
475 158 4 0 14.3104328357242 11.9641505570058 5.30914463452064
476 158 3 0 14.5504328357242 11.0341505570058 5.30914463452064