LAMMPS (29 Sep 2021 - Update 1)
Reading data file ...
  triclinic box = (0.0000000 0.0000000 0.0000000) to (15.000000 15.000000 15.000000) with tilt (0.0000000 0.0000000 0.0000000)
  2 by 4 by 4 MPI processor grid
  reading atoms ...
  1505 atoms
  scanning bonds ...
  4 = max bonds/atom
  scanning angles ...
  6 = max angles/atom
  reading bonds ...
  1004 bonds
  reading angles ...
  506 angles
Finding 1-2 1-3 1-4 neighbors ...
  special bond factors lj:    0        0        1       
  special bond factors coul:  0        0        1       
     4 = max # of 1-2 neighbors
     3 = max # of 1-3 neighbors
     4 = max # of special neighbors
  special bonds CPU = 0.002 seconds
  read_data CPU = 0.017 seconds
WARNING: Using 'neigh_modify every 1 delay 0 check yes' setting during minimization (../min.cpp:188)
Neighbor list info ...
  update every 1 steps, delay 0 steps, check yes
  max neighbors/atom: 10000, page size: 100000
  master list distance cutoff = 13
  ghost atom cutoff = 13
  binsize = 6.5, bins = 3 3 3
  3 neighbor lists, perpetual/occasional/extra = 3 0 0
  (1) pair hbond/dreiding/lj, perpetual, skip from (3)
      attributes: full, newton on
      pair build: skip
      stencil: none
      bin: none
  (2) pair lj/cut, perpetual, half/full from (3)
      attributes: half, newton on
      pair build: halffull/newton
      stencil: none
      bin: none
  (3) neighbor class addition, perpetual
      attributes: full, newton on
      pair build: full/bin
      stencil: full/bin/3d
      bin: standard
Setting up cg style minimization ...
  Unit style    : real
  Current step  : 0
WARNING: Energy due to 1 extra global DOFs will be included in minimizer energies
Per MPI rank memory allocation (min/avg/max) = 10.96 | 11.30 | 12.02 Mbytes
Step Temp E_pair E_mol TotEng Press Volume 
       0            0 9.1132244e+15    190.57515 9.1132244e+15 7.4059775e+17         3375 
    5000            0   -1041.8487    18.840841   -1023.0079    114.05877    37045.226 
Loop time of 4.68564 on 32 procs for 5000 steps with 1505 atoms

100.0% CPU use with 32 MPI tasks x no OpenMP threads

Minimization stats:
  Stopping criterion = energy tolerance
  Energy initial, next-to-last, final = 
    9.11322435472408e+15  -1022.42507325047  -1022.51682298193
  Force two-norm initial, final = 7.6206505e+17 109.10089
  Force max component initial, final = 4.1925449e+17 82.454462
  Final line search alpha, max atom move = 1.6736603e-05 0.0013800076
  Iterations, force evaluations = 5000 5002

MPI task timing breakdown:
Section |  min time  |  avg time  |  max time  |%varavg| %total
---------------------------------------------------------------
Pair    | 1.4393     | 2.4699     | 3.966      |  38.2 | 52.71
Bond    | 0.0063381  | 0.010038   | 0.015935   |   2.1 |  0.21
Neigh   | 0.10515    | 0.10533    | 0.10552    |   0.0 |  2.25
Comm    | 0.27568    | 1.7746     | 2.806      |  45.1 | 37.87
Output  | 0          | 0          | 0          |   0.0 |  0.00
Modify  | 0          | 0          | 0          |   0.0 |  0.00
Other   |            | 0.3258     |            |       |  6.95

Nlocal:        47.0312 ave          65 max          27 min
Histogram: 2 1 4 4 1 6 5 5 2 2
Nghost:        1971.06 ave        2011 max        1927 min
Histogram: 1 1 3 3 7 6 5 2 1 3
Neighs:        5018.25 ave        7634 max        3134 min
Histogram: 6 2 4 4 3 4 2 3 2 2

Total # of neighbors = 160584
Ave neighs/atom = 106.70033
Ave special neighs/atom = 2.0066445
Neighbor list builds = 93
Dangerous builds = 0
1500 atoms in group WAT
5 atoms in group MOL
Neighbor list info ...
  update every 2 steps, delay 10 steps, check yes
  max neighbors/atom: 10000, page size: 100000
  master list distance cutoff = 13
  ghost atom cutoff = 13
  binsize = 6.5, bins = 6 6 6
  4 neighbor lists, perpetual/occasional/extra = 3 1 0
  (1) pair hbond/dreiding/lj, perpetual, skip from (4)
      attributes: full, newton on
      pair build: skip
      stencil: none
      bin: none
  (2) pair lj/cut, perpetual, half/full from (4)
      attributes: half, newton on
      pair build: halffull/newton
      stencil: none
      bin: none
  (3) compute group/group, occasional, copy from (2)
      attributes: half, newton on
      pair build: copy
      stencil: none
      bin: none
  (4) neighbor class addition, perpetual
      attributes: full, newton on
      pair build: full/bin
      stencil: full/bin/3d
      bin: standard
Setting up Verlet run ...
  Unit style    : real
  Current step  : 5000
  Time step     : 1
Per MPI rank memory allocation (min/avg/max) = 9.808 | 9.843 | 10.11 Mbytes
Step Temp E_pair E_mol TotEng Press Volume 
    5000          300   -1041.8487    18.840841    321.93363    1773.6609    37045.226 
    5100    300.26961   -1114.2156    202.86454    434.79916    1376.5285    37045.226 
    5200    297.67903   -1121.2158    179.53606    392.85648    1019.8834    37045.226 
    5300    296.49346   -1087.1451    161.82945    403.90554     497.5425    37045.226 
    5400    306.00349   -1084.0687     177.5548    465.34207    520.46172    37045.226 
    5500    307.34094   -1126.9748      178.151    429.02819    550.13756    37045.226 
    5600    301.45663   -1129.0066    179.82754    402.29275    155.01409    37045.226 
    5700    302.46062   -1117.2182    177.87103    416.62563    388.79008    37045.226 
    5800    300.79719   -1108.3116    181.23664    421.44041    356.99375    37045.226 
    5900    312.90265    -1133.477    188.50187    457.81075    375.74882    37045.226 
    6000    305.18524   -1076.4639    190.25593    481.97961    496.27067    37045.226 
    6100    289.45579    -1123.339    186.39541    360.72678   -16.371708    37045.226 
    6200    299.78164   -1088.6971     190.6816    445.94705    364.42129    37045.226 
    6300    304.55433   -1103.1566    202.12139    464.32396    729.34691    37045.226 
    6400    302.52125   -1135.8039    191.66235    412.10309     846.9537    37045.226 
    6500    297.57865   -1118.8678    189.96661    405.18506    668.55685    37045.226 
    6600    300.35645   -1123.7065    188.43819    411.27125    405.64583    37045.226 
    6700     305.4194   -1073.2095    184.11655    480.14452    465.13869    37045.226 
    6800    293.56312   -1095.3429     203.9707    424.71191    494.72648    37045.226 
    6900    299.15001   -1114.7562    207.15909    433.53378    89.385538    37045.226 
    7000    300.05063   -1093.3852    193.29667     445.0799    237.08865    37045.226 
    7100    306.00749   -1164.4979     200.0959    407.47187    140.10656    37045.226 
    7200    285.46493    -1132.515    204.75495    352.01867    153.98112    37045.226 
    7300    303.71074   -1112.1778    212.47405    461.87353    412.63103    37045.226 
    7400    294.62736   -1129.0493     192.1328    383.93874    70.268529    37045.226 
    7500    305.63178   -1114.5917    211.01759    466.61541    627.23827    37045.226 
    7600     306.1975   -1107.8571    217.64448    482.51316    359.60018    37045.226 
    7700    292.07064   -1144.0625    211.68281    377.01336    210.83092    37045.226 
    7800    300.93501   -1107.2822    203.17343    445.02454    396.98733    37045.226 
    7900    313.00272   -1102.3947    213.06685    513.90665    199.75116    37045.226 
    8000    299.06338   -1108.6951    221.72571    453.77306    87.129485    37045.226 
    8100    299.96836   -1110.6425    211.77135    445.92852    270.40676    37045.226 
    8200    293.95944    -1118.233    203.91789    403.54574    147.44739    37045.226 
    8300    311.27259   -1144.9215    209.94501    460.50155    17.356684    37045.226 
    8400    300.44229   -1185.4372    215.65061    377.13776    193.45923    37045.226 
    8500    295.60495     -1173.54    210.46522    362.16307    92.024373    37045.226 
    8600    297.79149   -1130.2608    219.46853    424.24816    160.64579    37045.226 
    8700    304.56285   -1176.5992    218.53681    407.33494    24.890648    37045.226 
    8800    311.09841   -1169.0593    215.55433    441.19225   -66.132372    37045.226 
    8900    309.03528   -1148.1378    224.09947    461.40956    439.14644    37045.226 
    9000    295.17992   -1158.8908    219.44354    383.88518     86.53443    37045.226 
    9100    308.08448   -1131.7891    224.46554    473.86181    2.8324168    37045.226 
    9200     289.2914   -1105.3987    218.72491    410.25956    205.84262    37045.226 
    9300    317.70253   -1182.0343    227.44102    469.71115    243.10421    37045.226 
    9400      301.961   -1130.7606    233.93537    456.90774    229.64776    37045.226 
    9500    305.25928   -1155.1891    237.97375    451.30428    405.58974    37045.226 
    9600    306.75657   -1132.1869    234.32261    477.36784    417.55611    37045.226 
    9700    294.55435   -1131.2304    234.83086     424.1284    776.42895    37045.226 
    9800    294.67474   -1148.4565    226.83865    399.44972    465.60198    37045.226 
    9900    304.97984   -1157.5703    230.76036    440.45688    188.27474    37045.226 
   10000    305.46058   -1186.3288    226.61539    409.70867    324.22882    37045.226 
   10100    309.31738    -1161.095     223.5722     449.1898    237.12266    37045.226 
   10200    301.58793   -1190.2773    243.27633    405.05944    544.39391    37045.226 
   10300    297.12675   -1179.7259     235.7859    388.12034    264.92461    37045.226 
   10400    307.83533   -1192.7612    240.85571    428.16288    363.59486    37045.226 
   10500    289.65041   -1176.9563    242.16234    363.74896    451.20765    37045.226 
   10600    287.93072   -1188.3864    229.38251    331.82932    576.66656    37045.226 
   10700    296.18019   -1212.2541    233.54533    349.10803    741.30917    37045.226 
   10800    297.04861   -1223.5114     234.9873    343.18592    732.95441    37045.226 
   10900    293.25113   -1162.6443    243.67568    395.71679    953.57261    37045.226 
   11000    308.25259   -1224.7803    241.37891    398.53758    911.13405    37045.226 
   11100    303.03419    -1209.337    244.85199    394.05922    755.73041    37045.226 
   11200    284.30661   -1183.6716    229.92832    320.84256    183.21306    37045.226 
   11300    310.00496   -1163.8905    238.45673    464.36139    85.227702    37045.226 
   11400    306.11097   -1188.5273    240.35366    424.16421    241.90969    37045.226 
   11500    293.89652   -1168.5691     236.0935    385.10311    104.88191    37045.226 
   11600    300.19746   -1193.0955    242.09257    394.82379    257.87934    37045.226 
   11700    304.52443   -1192.0578     228.3369    401.50428    313.27915    37045.226 
   11800    304.18587   -1198.7299    252.65579    417.63325      370.498    37045.226 
   11900    295.63531   -1194.6964    256.45029    387.12788    51.071251    37045.226 
   12000    287.50125    -1200.746    263.61513    351.77701   -233.91563    37045.226 
   12100     301.4511   -1183.8826    247.62464    415.18897    225.69968    37045.226 
   12200    296.55405   -1185.6392    252.37226    396.22584   -55.899171    37045.226 
   12300    287.92185   -1186.2511    245.40495     349.9473    -41.35063    37045.226 
   12400    306.93128   -1163.8515    254.66145    466.82533    816.84363    37045.226 
   12500    305.68574   -1140.1155    267.66675     497.9827    747.70564    37045.226 
   12600    285.79383   -1160.2709    255.99399     376.9763    436.72549    37045.226 
   12700    309.40748   -1152.1672    247.42638    482.37572    633.23344    37045.226 
   12800    294.43251   -1162.6799    262.72217     420.0239    335.30194    37045.226 
   12900    301.04257     -1166.85    262.66359    445.42904    338.84235    37045.226 
   13000    301.22671   -1159.5094    243.89636    434.82791    190.84177    37045.226 
   13100    299.84312   -1158.6296    257.25716     442.8657   -57.514663    37045.226 
   13200    317.66459   -1165.8069    263.56951    521.89696   -424.45504    37045.226 
   13300    286.62866   -1150.8066    273.34807    407.53739   -231.81383    37045.226 
   13400    306.30871   -1129.7306    272.02518    515.51888    185.77507    37045.226 
   13500    297.71612   -1155.9806    260.76773    439.48974    558.59696    37045.226 
   13600    306.50191   -1144.5185    270.89221    500.46419    591.90225    37045.226 
   13700    304.43229   -1124.5774    271.08602    511.32065    791.97461    37045.226 
   13800    305.63972   -1111.4597    268.39787    527.16334    347.97925    37045.226 
   13900    299.80637   -1141.6221    269.49924    471.95059    -6.973454    37045.226 
   14000     292.4827   -1168.9207    271.93898    414.25871    66.934012    37045.226 
   14100    299.34174   -1137.3877    263.29632    467.89909    305.22315    37045.226 
   14200    302.70738   -1161.6952    264.29001    459.67382    298.80558    37045.226 
   14300    302.90626   -1128.3513    264.75135    494.37074    110.74084    37045.226 
   14400    307.99577   -1139.6741    274.26676    515.38024   -67.948937    37045.226 
   14500    299.60634    -1126.879    271.26026    487.55794    28.296206    37045.226 
   14600    299.93815   -1181.7168    267.30715    430.25454   -629.73844    37045.226 
   14700    301.50325   -1112.3088    278.12162    517.49358   -58.719872    37045.226 
   14800    297.13224   -1128.1819     291.7156    495.61868   -364.38141    37045.226 
   14900    293.59495   -1162.9845    279.53925    432.78152   -127.81082    37045.226 
   15000    297.96429   -1171.4284    282.86147    447.24821    227.02167    37045.226 
   15100    316.82462    -1136.004    292.53373    576.89828    317.44053    37045.226 
   15200    290.61507   -1128.3966    284.12263    458.59358    367.11193    37045.226 
   15300    302.29298   -1180.2168    274.52866    449.53312    598.48754    37045.226 
   15400     302.2463   -1173.6884    291.77632    473.09984    544.81908    37045.226 
   15500    302.42461   -1175.9569    273.53563     453.3901    505.86145    37045.226 
   15600     301.3197   -1191.6569    282.35745    441.55844    441.01789    37045.226 
   15700    298.00105   -1158.4751    297.76056    475.26541    189.95463    37045.226 
   15800    297.87977   -1148.5501    289.04933    475.93547    57.446775    37045.226 
   15900    304.69241   -1186.4575    282.18664    461.70739    557.76118    37045.226 
   16000    297.54451   -1145.5535    288.22513    476.60484    268.80609    37045.226 
   16100    303.36832   -1149.3497    272.65184    483.34434     195.7924    37045.226 
   16200    310.83928   -1138.4804     300.3585    555.41364    331.10285    37045.226 
   16300    297.65208   -1166.8823    295.73457    463.26773    38.683585    37045.226 
   16400    291.07679   -1155.1506    281.28029    431.06722   -377.27536    37045.226 
   16500    304.30943   -1168.0752    275.98507    472.17117    419.28033    37045.226 
   16600    301.13403   -1213.2671    292.19031    428.94868    582.11061    37045.226 
   16700    297.04407   -1192.5242    303.53536    442.70082    5.8446613    37045.226 
   16800    300.00502   -1167.5006    285.74838    463.21174    948.14007    37045.226 
   16900    298.14888   -1197.6753    295.03004    433.99746    248.14366    37045.226 
   17000    299.46321   -1190.7158    289.98622    441.80536    799.47141    37045.226 
   17100    305.12657   -1152.9213    275.34141    490.34477    432.59363    37045.226 
   17200    296.96014   -1142.2097    299.89534    488.99902    762.72169    37045.226 
   17300    294.60819   -1174.5018    299.96156    446.22898    208.49304    37045.226 
   17400    290.35821   -1193.7498     306.5428    414.50906    495.04848    37045.226 
   17500    307.31998   -1164.4679    292.65301    505.94309    657.01256    37045.226 
   17600    309.22744   -1206.6692    285.91789     465.5581    233.94762    37045.226 
   17700    293.75726   -1183.3576    278.37099    411.96788     570.2104    37045.226 
   17800    292.48817   -1172.8618    291.32655    429.72971    39.250007    37045.226 
   17900    301.67233   -1191.3724    286.36698    447.43337    246.44527    37045.226 
   18000    294.28577   -1222.6684    297.72406     394.3795    904.72145    37045.226 
   18100    297.71618    -1184.449    290.03434    440.28817   -37.255344    37045.226 
   18200    301.72483   -1227.6336    297.05475    422.09527    353.73673    37045.226 
   18300    295.16502   -1210.3268    297.59383    410.53265    393.47809    37045.226 
   18400    304.51113   -1220.8718     289.7329    434.02657   -100.12454    37045.226 
   18500    297.41335   -1244.8919    298.12409    386.57737   -28.232734    37045.226 
   18600    311.87482    -1221.841    298.26991    474.60685    298.09913    37045.226 
   18700    295.53845   -1218.6744    290.24694    396.51228   -230.15805    37045.226 
   18800    294.15341   -1230.1006    294.19597    382.82581    210.78547    37045.226 
   18900    307.93736   -1222.0516    285.70829    444.18249   -2.9445511    37045.226 
   19000    314.71605     -1212.01    289.55246    488.45808    131.26018    37045.226 
   19100    302.45959   -1179.5894    293.24711    469.62588    296.13231    37045.226 
   19200       288.22   -1195.1538    289.31018    386.28648   0.56042179    37045.226 
   19300    296.80004   -1187.9005     313.4222    456.11729    -3.419662    37045.226 
   19400    311.52582   -1167.7103    305.95485     534.8579    453.11482    37045.226 
   19500    297.87609    -1204.725    285.31911    416.01381    24.843985    37045.226 
   19600     304.1641   -1257.3666    277.27215    383.51531   -201.01534    37045.226 
   19700    310.34844   -1256.8472      308.424    442.91181   -107.39437    37045.226 
   19800    298.93294   -1270.8757    300.81469     370.0967   -236.70365    37045.226 
   19900    304.15547   -1247.4036     288.8264    404.99385   -228.30696    37045.226 
   20000    305.64395   -1270.0371    305.44596    405.65294    780.41475    37045.226 
   20100    298.95133   -1219.9714    328.67925    448.94797    622.24943    37045.226 
   20200    298.09989   -1266.4906    293.29043    363.22284    576.04074    37045.226 
   20300    303.97528   -1254.8331    296.10235    404.03244    45.052691    37045.226 
   20400    291.70862   -1214.3394    306.67637    400.10712    767.72288    37045.226 
   20500    294.40932    -1256.151    287.56186    351.28858    456.07777    37045.226 
   20600    290.62243   -1251.4107    318.86003    370.34989    308.77848    37045.226 
   20700    302.67169     -1267.86    295.43073    384.48977    438.43152    37045.226 
   20800    304.73436   -1251.3377    303.32303    418.15162    300.39418    37045.226 
   20900    299.99661   -1227.7574    328.29054    445.45946    643.66398    37045.226 
   21000    301.91709   -1267.5566    299.23144    385.21093    819.56354    37045.226 
   21100    309.57902   -1269.1708    294.92079    413.63559     339.7813    37045.226 
   21200    292.46663   -1251.1024    302.16062    362.22656     394.5061    37045.226 
   21300    301.20922   -1266.6836    311.06484    394.74383    180.40292    37045.226 
   21400    298.31386   -1291.3502    306.13042    352.16253     119.8531    37045.226 
   21500    298.76905   -1286.5273    301.41325     354.3089   -50.309142    37045.226 
   21600      312.533   -1237.6143    296.75579    460.27011    164.41754    37045.226 
   21700    301.45295   -1268.8358    309.44594    392.06537    170.42404    37045.226 
   21800    295.92535    -1222.679     326.8081    430.80334    248.50783    37045.226 
   21900    312.80295   -1200.5207    316.85909    518.67728    111.64992    37045.226 
   22000    306.18023   -1238.5491    321.08023    455.17946    415.28377    37045.226 
   22100    300.29386   -1230.2966    319.27542    435.23775     114.4751    37045.226 
   22200    299.82941   -1245.0945    327.47225    426.55449    115.50424    37045.226 
   22300    294.39519   -1221.1855    307.88293    406.51181    422.89315    37045.226 
   22400    292.72174   -1280.7827    330.12661    361.65598    278.76824    37045.226 
   22500    302.66501   -1305.7527    314.00094    365.13738    729.03291    37045.226 
   22600    283.93536   -1305.5919    340.23335    307.56292    127.30131    37045.226 
   22700    303.12131   -1266.7948    318.96239    411.10232    44.222545    37045.226 
   22800    303.38764   -1255.6682    339.51598    443.97651      337.167    37045.226 
   22900    293.74461   -1265.6814    335.24259    386.45894    71.745107    37045.226 
   23000     295.3686   -1250.4298    330.18472    403.93321    363.97624    37045.226 
   23100    309.18323   -1250.8664    358.10819    493.35298    403.00478    37045.226 
   23200    303.66405   -1263.3085    340.70067    438.76007   -88.995669    37045.226 
   23300     293.3494   -1273.4904    323.97558    365.61113   -355.94666    37045.226 
   23400    289.80086   -1234.6654    325.56666    390.11861   -237.76552    37045.226 
   23500    288.62657    -1243.193    342.07962    392.83941   -800.38744    37045.226 
   23600    289.30955   -1248.1019    320.25845    369.17127   -365.95746    37045.226 
   23700    304.31267   -1243.4806    340.80203    461.59718    373.80479    37045.226 
   23800    306.62203   -1255.7798    328.22977    447.07894    209.57953    37045.226 
   23900    298.41087   -1257.5428    326.27154    406.54593    425.95604    37045.226 
   24000    305.95767   -1236.7752    334.75484    469.63022    354.94604    37045.226 
   24100    297.04314   -1284.2702    322.45051    369.86574    94.932463    37045.226 
   24200    295.57248   -1224.0504    347.18784    448.22972    282.19954    37045.226 
   24300    288.68611   -1238.7216     327.9991    383.49724    212.36585    37045.226 
   24400    300.02392   -1282.5866    339.92395     402.3861    541.98138    37045.226 
   24500    292.49262   -1258.3296    343.32926    396.28453    935.18821    37045.226 
   24600    298.06784   -1260.5378    329.09715    404.83867    343.70107    37045.226 
   24700    300.64834   -1248.0538    322.60154    422.39582     323.9993    37045.226 
   24800     311.6576   -1246.5774     321.7131    472.33985    485.35353    37045.226 
   24900    300.09991    -1233.054      340.525    452.86038    336.92749    37045.226 
   25000    299.47207   -1258.4691     347.5532    431.65879   -3.5240946    37045.226 
   25100    306.21257   -1240.6745    319.14823      451.267    496.06114    37045.226 
   25200    292.39853   -1249.2287    346.59348    408.22784    591.28255    37045.226 
   25300    295.30227   -1245.4424    361.04616    439.48466    358.12335    37045.226 
   25400    298.92058   -1212.0513    338.20918    466.26015     402.3437    37045.226 
   25500    301.56597   -1249.1112    341.04668    443.89743    152.45575    37045.226 
   25600    297.23498   -1246.0896    343.29507    429.75105    473.52697    37045.226 
   25700    306.05751   -1267.0066    341.20703    446.29857    402.54942    37045.226 
   25800    309.47024   -1201.2092     338.4916    524.68031    457.15116    37045.226 
   25900    293.69239   -1254.3729    325.36579    387.65648    420.02992    37045.226 
   26000    302.53402   -1264.5223    344.61222    436.39173    85.177986    37045.226 
   26100    308.91893   -1280.6126    340.45861    444.77229    205.10736    37045.226 
   26200    295.77594   -1290.4276     352.1744    387.75123   -47.485739    37045.226 
   26300    298.22305   -1283.7284    361.52339     414.7702    140.21129    37045.226 
   26400    311.34683   -1268.3398    351.86491    479.33599    346.18679    37045.226 
   26500     301.4214    -1243.248    340.62115    448.68694   -468.95694    37045.226 
   26600    296.69229   -1286.8898    337.12395    380.34675    -447.3899    37045.226 
   26700    308.93087   -1261.6357    325.45126    448.79534   -439.68676    37045.226 
   26800    304.07652   -1284.7533     338.8529     417.3167    36.290038    37045.226 
   26900    295.66424   -1246.3552    335.14269    414.29111    353.50599    37045.226 
   27000       304.29   -1238.4989      339.149    464.82423   -200.83473    37045.226 
   27100    307.22548   -1269.9157    341.41242    448.83106     198.6799    37045.226 
   27200    311.12007   -1283.1377    350.24873    461.90531    64.152486    37045.226 
   27300    296.96815   -1300.6136    353.93109    384.66674    375.82521    37045.226 
   27400    297.64645   -1252.8403     351.9505    433.50046    485.18418    37045.226 
   27500    304.76166   -1250.7534    332.22567    447.76096    80.661806    37045.226 
   27600    305.50287   -1300.0606    351.76597    421.31704    458.67862    37045.226 
   27700    307.40289   -1299.1216     368.9109    447.91903    481.27164    37045.226 
   27800    299.68148   -1314.1164     339.0332    368.43032    97.823933    37045.226 
   27900    293.21693   -1313.2793    335.23056    336.48326   -117.10564    37045.226 
   28000    302.08411   -1300.1489    319.86826    374.00414    130.90935    37045.226 
   28100    292.13383   -1296.5158    333.10096    346.26149    215.14892    37045.226 
   28200    303.55004   -1322.1731    337.94607    376.62977   -129.56945    37045.226 
   28300    303.90802   -1317.1381    345.27085    390.59443   -60.155357    37045.226 
   28400     297.1511   -1269.8759    334.46722    396.76086   -256.26254    37045.226 
   28500    311.03017   -1301.6884    330.04767     422.7505    48.972138    37045.226 
   28600    300.99143   -1311.0259     349.2443    387.60465    194.17956    37045.226 
   28700    299.22446     -1280.48    349.93809    410.92274   -27.347996    37045.226 
   28800    279.88048   -1267.0043     326.8491    314.58766   -305.04583    37045.226 
   28900    302.97752   -1294.9784    330.26034    393.57206    340.77489    37045.226 
   29000    296.39808   -1302.0393    343.59629    370.35063    406.93392    37045.226 
   29100    303.13937    -1294.858    329.07767    393.23542    349.23878    37045.226 
   29200    310.31116   -1300.0489    344.27822    435.39714    315.99531    37045.226 
   29300    308.60557   -1282.5586    327.16538    428.12822    862.43312    37045.226 
   29400    294.67765    -1276.824    354.36298    398.61958    338.51628    37045.226 
   29500    298.38857   -1280.9062     339.7345    396.54551    344.84385    37045.226 
   29600    293.63019   -1278.1667    351.61414    389.83224    47.273538    37045.226 
   29700    298.80665    -1266.225    346.62437     419.9909    300.03599    37045.226 
   29800    275.71016    -1298.759    347.64243    284.93022    353.78067    37045.226 
   29900    313.26043   -1318.9775    339.45982    424.87219    436.33826    37045.226 
   30000      346.462   -1338.0583    296.96236    512.14114    448.55748    37045.226 
   30100    367.70901   -1303.1989    327.49662     672.7881    165.26629    37045.226 
   30200    359.44637    -1297.503    323.80016    637.74493    474.85968    37045.226 
   30300    329.09048   -1330.4382    339.01356    483.93348     365.9224    37045.226 
   30400    292.40103   -1371.4208    354.20198    293.65542    210.24023    37045.226 
   30500    298.42425   -1308.3884    347.83736    377.32617    139.70892    37045.226 
   30600    300.88881    -1278.431     348.6008    419.09593    403.44346    37045.226 
   30700    294.64826   -1264.4837    343.82492    400.29007    116.34778    37045.226 
   30800    299.28416   -1306.9978    342.31355    377.04799   -96.660771    37045.226 
   30900    300.62239   -1285.3431    327.35722    389.74591   -293.26825    37045.226 
   31000    293.50665   -1300.0247    351.65922    367.46547    32.789186    37045.226 
   31100     294.8977   -1266.1544    351.77455    407.68737   -3.7483411    37045.226 
   31200    284.63574    -1234.694    339.15475    380.52217    350.13195    37045.226 
   31300     294.1267    -1295.417     359.4963    382.68993    291.67841    37045.226 
   31400    300.06563   -1338.8245    359.57002    365.98126    147.00747    37045.226 
   31500    295.52982   -1316.3586    355.39224    363.93472    552.64988    37045.226 
   31600    302.89533   -1254.9753    359.66234    462.60869    366.15552    37045.226 
   31700    293.03628   -1270.9348    358.34691    401.13428    1038.7431    37045.226 
   31800    294.78992   -1327.6079     356.8521    350.82817    455.51414    37045.226 
   31900    293.79046   -1315.6582     346.8797    348.32476    531.81009    37045.226 
   32000    306.77873   -1322.3354    349.92339    402.91945    154.07611    37045.226 
   32100    292.14647   -1279.1791    362.29016    392.84412     428.9998    37045.226 
   32200    294.88737   -1291.6039    365.65995    396.07694    286.94946    37045.226 
   32300    305.13868   -1306.7483    356.45638    417.68703    481.60527    37045.226 
   32400     309.1149   -1288.7158    361.84261    458.93164    385.61079    37045.226 
   32500    299.15479   -1286.3029    392.27353     447.1229    632.96273    37045.226 
   32600     305.6556   -1302.5019     369.4171    437.21156    360.26615    37045.226 
   32700    310.62913   -1257.4493    366.02736    501.17137    655.10239    37045.226 
   32800    303.26176   -1352.3637    364.44441     371.6451    336.43919    37045.226 
   32900    295.08473   -1293.5737    354.90122    384.23322    478.39031    37045.226 
   33000    294.70682   -1338.9257    379.35094    361.63669    851.70195    37045.226 
   33100    284.98819   -1332.4781    367.00862    312.17202    471.11203    37045.226 
   33200    299.51503   -1308.1926    349.76449    384.33915    568.11039    37045.226 
   33300    305.21398   -1282.6428    373.15142    458.82515    285.67598    37045.226 
   33400    291.64912   -1313.4725    357.38503    351.41588    42.281713    37045.226 
   33500     296.8105   -1294.3652      361.199    397.47637   -502.89743    37045.226 
   33600    300.95247      -1300.2    359.75886    408.77046   -75.300894    37045.226 
   33700    297.28024   -1249.2295    378.83929    462.35828    514.65322    37045.226 
   33800    305.73459   -1293.3492    349.57168    426.87289    364.55591    37045.226 
   33900    309.63394   -1340.4804    352.73696    400.38839    70.466716    37045.226 
   34000    311.43023   -1332.3142      359.699    423.56957    253.93453    37045.226 
   34100     293.5491   -1305.6833    376.52575    386.86368    211.96554    37045.226 
   34200    303.57175   -1338.6929    362.81871    385.07994   -77.133665    37045.226 
   34300    307.29302   -1295.2352    356.43052    438.83246   -231.37584    37045.226 
   34400    302.10013   -1306.6261    357.41758    405.14819    14.596507    37045.226 
   34500     291.9443   -1338.3497    354.14501    324.62193    268.01051    37045.226 
   34600    302.12386   -1344.1113    346.15138    356.50314    728.44516    37045.226 
   34700    297.95463   -1342.0667    362.87115    356.57625     819.7643    37045.226 
   34800    288.62611   -1341.8397    369.27046    321.38155    531.24572    37045.226 
   34900     294.2797   -1322.3974    360.56533    357.46455    819.16273    37045.226 
   35000    289.71778   -1308.7867    377.07232    367.13054    388.40131    37045.226 
   35100    289.99521   -1335.2549     364.2678    329.10147    485.63416    37045.226 
   35200    295.31236     -1313.58    370.82212    381.16828   -226.77139    37045.226 
   35300    308.88951   -1321.7489    341.13063    404.17609    319.81104    37045.226 
   35400    296.61189   -1346.7444    372.56126      355.569    -417.1354    37045.226 
   35500    301.33805   -1320.1361    378.07407    408.87812   -257.44408    37045.226 
   35600    305.41938   -1312.5015    362.42403    419.15983    138.16371    37045.226 
   35700    299.36453     -1367.52    368.20779    342.78037   -232.69696    37045.226 
   35800    289.93334   -1364.2286    351.46692    287.04958    580.69604    37045.226 
   35900    304.77795      -1352.6    388.17322    401.93497    740.33603    37045.226 
   36000    307.93182   -1307.0523    380.58366    454.03233    327.71652    37045.226 
   36100    287.14261   -1323.1429     361.0845    325.24169    420.82611    37045.226 
   36200    296.82299   -1334.5141     383.2985    379.48296    657.68762    37045.226 
   36300    293.45784   -1326.1019    348.88501    338.39522    950.48992    37045.226 
   36400     305.9499   -1348.0486    366.74582    390.31298    634.39316    37045.226 
   36500    288.28644   -1383.6371    364.65861    273.44948    208.81763    37045.226 
   36600    292.61692   -1345.0946    363.86725     330.6148     380.1614    37045.226 
   36700    302.77718   -1367.9814    369.03697    358.44758    -30.36276    37045.226 
   36800    298.57283    -1350.332    364.90527    353.11655    319.38566    37045.226 
   36900    301.70985   -1339.9387    340.91454     353.5828   -361.60285    37045.226 
   37000    313.19553   -1326.9343    387.27977    464.44438   -60.097384    37045.226 
   37100    298.83409   -1327.9227     374.6559    386.44779     65.73876    37045.226 
   37200    304.70924    -1336.882    386.29108     415.4627    659.40087    37045.226 
   37300    295.16562   -1318.5207    373.57122    378.31877    910.67483    37045.226 
   37400    292.52402   -1325.6239    397.34034    383.14203    693.98708    37045.226 
   37500    288.88704   -1323.4815    375.50572    347.14471    374.46807    37045.226 
   37600    302.47929   -1337.2293    369.31383    388.14105    291.89987    37045.226 
   37700    309.89405   -1340.3467    373.94373    422.89491     247.9416    37045.226 
   37800    291.67998   -1350.1697    363.73181    321.20379   -374.95243    37045.226 
   37900    296.55931   -1317.8249    375.59565    387.28715   -50.898004    37045.226 
   38000    304.07219   -1333.8849    375.09378    404.40661    221.14422    37045.226 
   38100    297.67381   -1304.0971    361.86481    392.28058   -174.37204    37045.226 
   38200    287.78407   -1293.7064    379.58456    376.05396   -309.71171    37045.226 
   38300    302.44807   -1311.5935    376.76246    421.08555   -568.05732    37045.226 
   38400    301.96206    -1271.291    363.78013    446.22679   -473.34271    37045.226 
   38500     307.6052   -1266.0256     391.5339      504.545    157.43708    37045.226 
   38600    293.88232   -1316.5321    404.94267     405.9256   -38.933391    37045.226 
   38700    301.37605   -1301.2569    382.84828    432.70191   -189.35746    37045.226 
   38800    299.39943   -1350.4557    390.23622     382.0296   -152.59061    37045.226 
   38900    304.47706   -1361.9294    379.19741    382.28081     183.0183    37045.226 
   39000    294.59971   -1351.0811    374.68265     344.3328    289.58436    37045.226 
   39100    305.37408   -1385.9969     384.7463     367.7836   -502.39339    37045.226 
   39200    295.22818   -1392.2949    380.41863    311.67248   -272.95124    37045.226 
   39300    320.40507   -1413.3347    363.59463    386.68024   -293.17211    37045.226 
   39400    299.10035   -1360.7356     391.6792    371.85185   -285.99153    37045.226 
   39500    300.24922    -1395.542     358.8999    309.41667   -324.88826    37045.226 
   39600    300.47974   -1375.8476    389.63137    360.87597     101.9973    37045.226 
   39700    301.46936    -1365.002    380.92907    367.45588    180.19304    37045.226 
   39800    299.56873    -1385.848    370.41809    327.57812    605.52948    37045.226 
   39900    307.97937    -1414.964    364.93939    330.68956    669.85989    37045.226 
   40000    301.54299   -1383.3635    391.35123    359.84668    536.83199    37045.226 
   40100    291.45655   -1388.5142    383.02202    301.14787    462.70897    37045.226 
   40200    294.45795   -1416.3192    386.91766    290.69419    100.35792    37045.226 
   40300    305.23981   -1418.9092    394.35524    343.87828     340.4379    37045.226 
   40400    291.58116   -1443.5417    380.24462    243.90157    55.031605    37045.226 
   40500     298.5206   -1446.4962    366.28283     258.0958   -205.16106    37045.226 
   40600    309.62626   -1378.3456    384.01333    393.76506     74.93047    37045.226 
   40700    304.54513      -1392.3    382.73236    355.75029   -458.59494    37045.226 
   40800    303.17524   -1381.2268    399.76325    377.71294   -167.35215    37045.226 
   40900    313.61427   -1405.5003    381.92209    382.39795    87.470641    37045.226 
   41000    300.53139   -1392.2358    388.97403    344.06198   -3.2240541    37045.226 
   41100    290.18745   -1378.9349    401.97115    323.98669    195.97402    37045.226 
   41200    303.71037   -1398.4811    374.22603    337.32052    22.690522    37045.226 
   41300    307.77869   -1416.9386    399.53019    362.40607    336.40903    37045.226 
   41400    312.07469   -1398.5761    389.25001    389.74793    297.23988    37045.226 
   41500    292.51232    -1384.852    384.70055    311.22171   -283.96846    37045.226 
   41600    309.98969   -1355.1608    389.14021     423.7061    202.38857    37045.226 
   41700    295.36852   -1393.4676    395.34345    326.05376    250.22128    37045.226 
   41800    301.72873   -1427.9446    402.30634    327.05338    560.47668    37045.226 
   41900    298.40684   -1386.8545    378.35682    329.30151    128.79581    37045.226 
   42000    297.86016   -1374.3561    373.73705     334.7293    44.431981    37045.226 
   42100    299.23969   -1418.4179    391.07278    314.18783    341.85969    37045.226 
   42200     294.9712   -1429.7383    396.44216    289.10059    288.42006    37045.226 
   42300    294.56051   -1418.4014    381.35737    283.51146    -74.18077    37045.226 
   42400    303.13191    -1374.577    390.59327    374.99853   -189.16994    37045.226 
   42500    296.61686   -1372.7996    387.53139    344.50615    157.71399    37045.226 
   42600    300.95205   -1404.4103    393.45412    338.25353    97.171618    37045.226 
   42700    301.62302   -1377.7028    372.37358    346.88848   -124.99912    37045.226 
   42800    291.59089   -1348.3476    386.89534    345.79003   -120.48183    37045.226 
   42900    294.43767   -1367.7956    373.62033    325.82956   -349.63799    37045.226 
   43000    321.58217   -1326.6206    370.94566    486.02243    371.48207    37045.226 
   43100    296.09406    -1362.003    395.99311    361.42073    314.55908    37045.226 
   43200    299.79069   -1373.2067    381.84103     352.6375    248.98294    37045.226 
   43300    295.51532   -1352.4524    374.91224    347.29591    87.141317    37045.226 
   43400    297.40046   -1362.6145    396.37265    367.04558    29.636256    37045.226 
   43500    295.59267   -1349.4353    396.79622    372.54374    288.27503    37045.226 
   43600    300.73958   -1327.2579    402.03712    423.03636   -80.155411    37045.226 
   43700    292.82208   -1331.7829    378.27017    359.24919    173.40606    37045.226 
   43800    300.27249   -1319.2505     404.3242    431.23678    186.67114    37045.226 
   43900    301.09706     -1360.07    385.24249    375.03221     426.1099    37045.226 
   44000    303.37682   -1346.7939    392.94339     406.2297   -452.17667    37045.226 
   44100    303.24581   -1379.5816     382.6969    362.60824   -168.10952    37045.226 
   44200    295.25056   -1366.0565    383.65625    341.24887    169.69618    37045.226 
   44300    290.36524   -1363.7071    409.56255    347.60302    341.87274    37045.226 
   44400    297.18151   -1338.1596    390.22872    384.37491   -376.85492    37045.226 
   44500    309.10512   -1339.0982    362.08252    408.74531    153.80253    37045.226 
   44600    302.69386   -1357.8496    391.90464    391.07348   -22.513478    37045.226 
   44700    286.37785   -1366.4728    395.62077    313.01949    254.53321    37045.226 
   44800    300.57865   -1411.0808    397.29022    333.74508    555.95704    37045.226 
   44900    307.57094   -1384.7675    398.12378    392.23937    864.42736    37045.226 
   45000    293.76091   -1367.2388     400.4405    350.17251    138.23282    37045.226 
   45100    300.91278   -1401.6279    386.20298    333.60868     449.0617    37045.226 
   45200    296.38869   -1424.2559    402.99147    307.48704    141.72906    37045.226 
   45300    291.88612   -1403.6799    377.87526     282.7612     19.29521    37045.226 
   45400    293.68632   -1412.6638      394.396    298.36856     120.9737    37045.226 
   45500    298.74813   -1416.2307    394.38405    317.48256   -115.95114    37045.226 
   45600    304.54087   -1418.4857    376.51915    323.33224   -32.681305    37045.226 
   45700    291.69549   -1405.5811    410.79265    312.92281   -22.235841    37045.226 
   45800    295.09192   -1413.7266     388.3092    297.52049   -311.04512    37045.226 
   45900    297.52387   -1410.6165    418.88528    342.10946    42.740961    37045.226 
   46000    307.12085   -1421.7981    398.14498     353.2121    55.994081    37045.226 
   46100    296.11542   -1420.9016    404.13656    310.76138   -315.21077    37045.226 
   46200    311.55352   -1379.5541    363.92651    381.10994   -382.66785    37045.226 
   46300    296.62938   -1366.3484    379.99674    343.47889    -644.1516    37045.226 
   46400    300.12312   -1358.7865    404.36582    391.07283   -387.27381    37045.226 
   46500    299.56716   -1371.4421    402.76294    374.32182    -155.2053    37045.226 
   46600    298.73104   -1344.5537    393.80732    388.50615   -378.99167    37045.226 
   46700    289.96129   -1357.9683    407.46665    349.43497   -485.86527    37045.226 
   46800    302.59597   -1361.4116    389.89226     385.0602   -128.53678    37045.226 
   46900    291.91389   -1337.1577    407.82862    379.36127   -174.47489    37045.226 
   47000    302.95367   -1382.9774    392.82773    368.03354    -14.06083    37045.226 
   47100    300.72656   -1405.1915    392.14438    335.15164    113.45041    37045.226 
   47200      293.431   -1352.9617    402.10679    364.63684    185.31194    37045.226 
   47300    308.98982    -1380.862    361.42978    365.81187    11.008267    37045.226 
   47400    294.33715   -1391.4779    393.49033     321.5666   -304.49661    37045.226 
   47500    303.77484   -1364.0365    395.23832    393.06644   -511.04465    37045.226 
   47600    303.40284   -1382.0189    416.52616    394.70417    41.407641    37045.226 
   47700    314.48015   -1372.6729    421.80839    458.99352    473.13673    37045.226 
   47800    302.42573   -1344.6266    396.20428    407.39405    138.30117    37045.226 
   47900    288.73256   -1392.4231    403.46479    305.46966    68.063474    37045.226 
   48000    302.04634   -1356.0731    375.13078     373.1732   -25.446768    37045.226 
   48100    300.17298   -1330.7992    404.96642    419.88416   -147.20692    37045.226 
   48200    304.92304   -1369.9879    399.92607    396.95038   -265.70297    37045.226 
   48300    298.67391   -1368.3826    418.31476    388.92858   -40.611265    37045.226 
   48400    291.84214   -1376.1346    393.30024    325.53429   -177.68548    37045.226 
   48500    302.79892   -1389.6874    389.46111    357.26314    214.21188    37045.226 
   48600     305.9116   -1382.0961    390.73052    380.07841    435.65901    37045.226 
   48700      308.508   -1383.1676    404.67014    404.58661   -9.6191152    37045.226 
   48800    295.55416   -1387.9023    390.87946    327.98733    284.60749    37045.226 
   48900    301.21785   -1407.7914    395.34745    337.95733    -10.67574    37045.226 
   49000    291.12632   -1379.9491    408.67187    333.88235    446.08574    37045.226 
   49100    288.05193      -1387.7    407.06198    310.73867    88.504061    37045.226 
   49200    302.45365   -1368.4196    393.13507    380.65694   -299.89859    37045.226 
   49300    295.22882   -1329.6696    391.26482    385.14691    123.54914    37045.226 
   49400    295.55733   -1348.8239    370.61782    346.81827    140.22532    37045.226 
   49500    290.59809   -1340.1618    415.87799     378.5076    332.23181    37045.226 
   49600    303.11776   -1370.2905    359.20196     347.8303   -61.222842    37045.226 
   49700    306.22355   -1361.3747    419.46241    430.93027    142.92702    37045.226 
   49800    308.31536   -1384.8167    417.77416    415.17782    147.09177    37045.226 
   49900    311.55903   -1346.1419    415.86461    466.48493    765.57524    37045.226 
   50000     304.1202   -1324.3126    401.04687    440.14718    400.25781    37045.226 
   50100     299.7268   -1338.4603    407.05648    412.31284     107.1642    37045.226 
   50200    300.10612   -1376.4964    412.91035    381.83123    42.787156    37045.226 
   50300    293.18274   -1351.9214    429.20527    391.66266     309.3693    37045.226 
   50400    303.77701   -1365.8634    406.21148     402.2224    -131.5632    37045.226 
   50500    305.47933   -1389.3652    431.82961    411.97047     239.0715    37045.226 
   50600    295.69148   -1389.4036    438.01279    374.23497     425.6211    37045.226 
   50700    308.64169   -1400.0546    390.87641    374.50517    654.12076    37045.226 
   50800    302.50849   -1409.0091    408.07732    355.25556     306.0526    37045.226 
   50900    308.19222   -1435.9763    400.77317    346.46518      603.827    37045.226 
   51000    292.66544   -1373.0021    397.32289    336.38047     812.4007    37045.226 
   51100     302.6207   -1431.3019     408.4108    333.79932    270.44025    37045.226 
   51200    295.78467   -1426.3857    416.62412      316.282    794.62958    37045.226 
   51300     301.5135   -1416.4343    382.61336    317.90577    283.36892    37045.226 
   51400    299.46893   -1430.8068    411.14526    322.89916   -82.189366    37045.226 
   51500     300.7784   -1401.9046    397.10277    343.62936   -333.49673    37045.226 
   51600    305.15635    -1448.879    394.56106    313.74013   -240.27451    37045.226 
   51700    291.17057   -1401.3989    410.15476    314.11384   -566.48852    37045.226 
   51800     289.5661   -1387.8618     385.9727    296.27576    17.030239    37045.226 
   51900    302.45921   -1390.0582    405.94958    371.85783   -401.30566    37045.226 
   52000    302.30716   -1385.9307    412.64697    382.00106     91.22161    37045.226 
   52100     302.2299   -1388.5596    435.92922    402.30806    244.90526    37045.226 
   52200    304.21862   -1383.4129    404.09832    384.53962   -93.886865    37045.226 
   52300    288.08655   -1364.8508    426.03582    352.71681   -507.47679    37045.226 
   52400    302.87647   -1372.9572    407.58856    392.46845   -431.97521    37045.226 
   52500    306.50766   -1386.0942    408.27895    396.30096   -234.76009    37045.226 
   52600    305.53158     -1364.79    441.10089    446.05118    261.92297    37045.226 
   52700    305.76485   -1397.4397     413.6873    387.03371    361.36887    37045.226 
   52800    302.28678   -1358.6473    417.43172    413.97785    402.86143    37045.226 
   52900     303.7589   -1371.9191    415.40606    405.28015    32.525873    37045.226 
   53000    285.23463   -1373.4472      409.362    314.66109   -351.77884    37045.226 
   53100    295.96014   -1341.2661    427.59179    413.15588   -362.19263    37045.226 
   53200    296.85803   -1360.9187    430.20173    400.13866    -417.9656    37045.226 
   53300    295.59902   -1407.8251    397.54866    314.93482   -781.62798    37045.226 
   53400    303.47222   -1459.3819    386.99332    288.11942    -614.4597    37045.226 
   53500    299.55922   -1401.3119    414.24476    355.89832   -165.14263    37045.226 
   53600     292.8248   -1417.7228    416.81964    311.87092   -307.30719    37045.226 
   53700    294.42377   -1392.1301    403.91462    331.72697   -376.86722    37045.226 
   53800    293.91761   -1397.3378    411.08014    331.41566   -471.24143    37045.226 
   53900    302.32193   -1407.5715    402.94183    350.72135   -121.77511    37045.226 
   54000    294.97808   -1424.1412    420.07106    318.35739    944.01132    37045.226 
   54100    296.34106   -1395.6783    420.00431    352.86393    514.14214    37045.226 
   54200    294.02388   -1419.4411     386.0664      284.775   -519.44514    37045.226 
   54300      296.661   -1408.2318    431.54659    353.28713    327.54267    37045.226 
   54400    298.23339   -1434.5225    394.26813     296.7671   -268.69739    37045.226 
   54500    297.87452   -1436.5458    416.10024    314.96711    200.81221    37045.226 
   54600    306.20754   -1398.6276    433.24072    407.38385    750.27851    37045.226 
   54700    293.82475   -1387.0569    435.93945    366.13951    320.38256    37045.226 
   54800     310.1601   -1415.5926    411.19613    386.09412    116.38943    37045.226 
   54900    304.70619    -1393.217    414.92684    387.74987    548.62398    37045.226 
   55000     309.5475   -1363.5451    405.53231    429.73149    585.70126    37045.226 
   55100    298.32434   -1370.6284    409.53415    376.33508    279.69995    37045.226 
   55200     291.4105   -1388.0404    398.89907    317.29225    177.59587    37045.226 
   55300    299.46204   -1373.1889    390.18084    359.52163    143.17773    37045.226 
   55400    289.82201   -1399.8702    411.24454    310.68647    79.618718    37045.226 
   55500    308.20435    -1394.559    427.58259    414.74632    264.20448    37045.226 
   55600    297.89118   -1374.0295    410.96146    372.41935    146.83906    37045.226 
   55700    299.81141   -1377.3755    422.15469    388.87525    68.862793    37045.226 
   55800    300.65387   -1382.7601    413.03085    378.14364   -212.95488    37045.226 
   55900    309.59062   -1380.0125    415.02068    422.94579   -235.65717    37045.226 
   56000     303.8276   -1345.1873    428.48293    445.39676   -262.98381    37045.226 
   56100    297.83823   -1381.5715    405.45976    359.13823    415.16354    37045.226 
   56200    296.97596   -1406.0645    399.60479    324.92455    604.90198    37045.226 
   56300    309.53411   -1404.6427    408.35718    391.39877    590.90212    37045.226 
   56400    314.09922   -1372.8132    413.31994    448.65699    513.02484    37045.226 
   56500    293.83301   -1356.8102    411.01873    371.50255    397.69219    37045.226 
   56600    291.40854   -1370.7107    402.19932    337.91339    144.66997    37045.226 
   56700     292.2473   -1362.3311    419.43357    367.28754    21.899493    37045.226 
   56800    297.90884    -1391.701     431.4983    375.36383     461.3028    37045.226 
   56900    296.19105   -1379.1226    416.45211    365.19493    861.31519    37045.226 
   57000    293.53449    -1422.106    410.10212    303.95188   -183.80299    37045.226 
   57100    309.44755   -1399.4801    415.41221    403.22828    15.483519    37045.226 
   57200    294.61229   -1385.2082    417.71354    353.29301    -178.0054    37045.226 
   57300     302.3728   -1363.0328    399.09091    391.63722    186.53493    37045.226 
   57400    302.78342   -1393.9921    408.74335    372.17121     623.0194    37045.226 
   57500    292.57305   -1384.2109     408.5529    335.98748    576.90259    37045.226 
   57600    298.52707   -1362.4111    412.76884    388.69583     1256.573    37045.226 
   57700    294.02256   -1381.3038    428.17215    365.01214    480.26936    37045.226 
   57800     292.6019   -1388.6766    408.36228     331.4604    360.19897    37045.226 
   57900    299.23004   -1383.6012    411.09438    368.98282    183.03735    37045.226 
   58000    302.99179   -1381.1587    401.90471    379.10012    157.76915    37045.226 
   58100    302.26875   -1354.7766     411.0836    411.41961    188.81017    37045.226 
   58200    307.26948   -1368.8353    423.35371    432.04998    42.151657    37045.226 
   58300    301.59174   -1378.7194    418.33592    391.69398   -348.80863    37045.226 
   58400    299.08939   -1374.8098    410.06983    376.11916   -1196.7245    37045.226 
   58500    295.81111    -1384.259    413.96677    355.86989   -161.99207    37045.226 
   58600    307.09694   -1372.0797    409.97599    414.65438     140.1424    37045.226 
   58700    295.77692   -1410.2025    420.65135    336.45771    145.17045    37045.226 
   58800    300.56396   -1372.5063    423.30051    398.26403    580.71205    37045.226 
   58900     297.8463   -1433.8471    385.49533    286.93446    186.12029    37045.226 
   59000    297.20781   -1427.6622    414.40571    319.16721    124.07674    37045.226 
   59100    307.76433   -1414.0812    392.55773    358.22656    47.720694    37045.226 
   59200    311.15155   -1397.6423    427.46235    424.75543    226.28299    37045.226 
   59300    307.06595    -1421.823    405.99154    360.78765    15.091082    37045.226 
   59400     300.2218   -1370.5386    427.15322    402.55046    202.90797    37045.226 
   59500    293.09603   -1360.8423    421.56015    374.70787    479.27999    37045.226 
   59600    301.33026   -1343.4512    418.36242    425.81642     524.9015    37045.226 
   59700    300.02378   -1377.9203    391.18834    358.31616    61.849094    37045.226 
   59800    295.74281   -1401.3633    404.62647    329.11913   -144.74866    37045.226 
   59900    311.52659   -1393.4278    408.73588    411.92488    89.676507    37045.226 
   60000    300.50979   -1375.0898     420.5112    392.64838   -38.160591    37045.226 
   60100    290.11399   -1434.3915    409.08228     275.3119   -90.256802    37045.226 
   60200    301.16416   -1469.1285    387.06159    268.09366   -101.38241    37045.226 
   60300    299.47893    -1411.991    423.25676    353.87125    799.31186    37045.226 
   60400    300.08843   -1387.1688    411.86725    370.03637   -26.463008    37045.226 
   60500    298.51437    -1387.835    418.04758    368.49386    140.11856    37045.226 
   60600     309.3449   -1362.5127    414.17126    438.49447    17.616301    37045.226 
   60700    297.19789   -1338.9102    435.41853    428.88762   -94.013098    37045.226 
   60800    309.12344   -1341.8346    426.69265     470.7012    217.18736    37045.226 
   60900    297.79483   -1338.2198      447.106    443.94158    238.91804    37045.226 
   61000    304.19302   -1394.3857    421.51565    390.86934   -165.99601    37045.226 
   61100    295.20546    -1393.707    415.12641    344.86628    263.77789    37045.226 
   61200    304.86094   -1381.8137    432.64898    417.56906   -156.64162    37045.226 
   61300    300.39948   -1436.3766    397.08947    307.44524    210.35457    37045.226 
   61400     297.3469   -1407.9269    388.12574    313.24617    80.714202    37045.226 
   61500    297.28549   -1400.3581    396.96144    329.37533   -38.375649    37045.226 
   61600    300.93405   -1419.0787    414.23942    344.28967    27.005436    37045.226 
   61700    302.70548   -1397.9893     433.0721    392.15336     9.026402    37045.226 
   61800    294.26025   -1392.5583    421.51608    348.16717    358.84975    37045.226 
   61900    292.11609   -1393.1869    444.79896    361.20892    484.44603    37045.226 
   62000    294.25119   -1397.9062    417.49001    338.75259    647.30229    37045.226 
   62100    303.74244   -1376.9089    389.79218     374.6026    171.09821    37045.226 
   62200    306.25116   -1428.3882    415.26429    359.84237   -128.08143    37045.226 
   62300    305.15555   -1370.5713    421.29408     418.7773   -179.17789    37045.226 
   62400    311.29733   -1375.7097    439.83837    459.71766   -272.82655    37045.226 
   62500    306.74379   -1415.0215     405.3096    365.46299   -448.42465    37045.226 
   62600    298.39221   -1410.9841    415.58488    342.33431    252.26429    37045.226 
   62700     304.1721   -1397.6115     443.3771    409.41122   -218.54956    37045.226 
   62800     298.7496   -1349.7915    419.23933    408.78359    -203.8596    37045.226 
   62900    296.50067   -1379.3753    415.61821    365.49646   -305.18463    37045.226 
   63000    303.58527   -1372.5818    416.05107    404.48406   -382.73024    37045.226 
   63100    294.18292   -1397.8542    411.89512    332.90365   -150.43473    37045.226 
   63200    300.73382   -1392.8348    406.91278    362.30925   -245.45804    37045.226 
   63300     296.4625   -1377.5551    439.10557    390.63286    460.10399    37045.226 
   63400    291.34533   -1339.4151    444.49695    411.22322   -262.42881    37045.226 
   63500     296.1771   -1404.6126    415.75618    338.94653    302.46888    37045.226 
   63600    302.64279   -1391.0472    451.76638    417.50869    387.91764    37045.226 
   63700    296.64903    -1391.737    430.46338    368.64499    271.75222    37045.226 
   63800    297.82834    -1406.124    417.33733    346.41896    527.79007    37045.226 
   63900    298.34339    -1357.422    436.10362    416.19631   -242.98113    37045.226 
   64000    299.02189   -1348.8325    423.78357    415.50759     120.3682    37045.226 
   64100    298.15822   -1349.6155    426.89134    413.96037   -572.72307    37045.226 
   64200    289.69123   -1374.5356    426.92281    351.11301   -76.032241    37045.226 
   64300    296.85684   -1355.7461    430.60786    405.71204   -56.694332    37045.226 
   64400    316.14335   -1335.3131    409.20358    491.20479    150.11921    37045.226 
   64500    294.00976   -1337.0767    429.27624    410.28594    654.22727    37045.226 
   64600    292.58548   -1305.2177    445.39136    451.87485    493.56069    37045.226 
   64700    307.33019   -1309.1837    431.51852    500.13857    108.57449    37045.226 
   64800    306.57383   -1333.5146    426.81066    467.70899   -273.97118    37045.226 
   64900    292.41877   -1348.8015    428.77657     390.9289   -599.52107    37045.226 
   65000    300.31553   -1343.2036    416.03889    419.19133   -584.15025    37045.226 
   65100    307.26577    -1371.487    415.48167    421.50964   -12.656728    37045.226 
   65200    297.56364   -1387.6139    441.07556    387.48063   -91.052979    37045.226 
   65300    287.05978   -1322.9155    434.69236    398.70554    129.13731    37045.226 
   65400    304.15344   -1338.1785    447.70082    473.08428   -113.71485    37045.226 
   65500    303.90812   -1328.2922    443.74176    477.91172   -87.583151    37045.226 
   65600    295.21309   -1359.9718    404.05433    367.56362   -597.83283    37045.226 
   65700    297.30399   -1364.0216    420.13684    388.97018   -796.69626    37045.226 
   65800     306.9455    -1366.038     422.2184    432.25953   -273.70302    37045.226 
   65900    304.24142   -1404.5825    416.58717      375.961   -437.46808    37045.226 
   66000    292.76488   -1367.6765    442.90054    387.72949    271.51519    37045.226 
   66100    299.89508    -1358.371    423.41569    409.51587    180.55205    37045.226 
   66200    304.86804   -1404.2246    428.04478     390.5858    90.076606    37045.226 
   66300    288.25903   -1412.7788    417.61596    297.14226   -537.46356    37045.226 
   66400    310.29459   -1416.4957    397.76038    372.35822   -911.87321    37045.226 
   66500    315.59526   -1393.6908    403.54661    424.71299   -576.97025    37045.226 
   66600    294.54311   -1394.4945    436.88069    362.86364   -511.37374    37045.226 
   66700    300.68406   -1432.3766    425.95214    341.58378   -501.69992    37045.226 
   66800    306.79701    -1401.913     426.3705    399.87093   -173.83662    37045.226 
   66900    303.79983   -1442.3112    436.01828    355.68371   -542.51068    37045.226 
   67000    316.93409   -1392.5225    406.45656    434.79342   -209.77499    37045.226 
   67100    304.75678   -1414.9733    408.57533    359.86887    -57.66904    37045.226 
   67200    306.15309   -1396.1069    424.26285    400.68253    221.46427    37045.226 
   67300    303.09271   -1407.9092    425.34464    376.24199   -73.321328    37045.226 
   67400    293.66239   -1409.8285    426.12645    332.82708   -456.34525    37045.226 
   67500    308.15724   -1397.4384    415.21375    399.28691    400.91111    37045.226 
   67600    295.19042   -1415.8421    430.47282    338.01021   -226.19734    37045.226 
   67700    298.70516   -1396.4201    446.32369    389.04011    41.755204    37045.226 
   67800    305.20897    -1383.786    410.72175    395.22978    385.83495    37045.226 
   67900    300.10803   -1404.3199    419.57554    360.68147    371.15686    37045.226 
   68000    308.47658   -1414.8617     434.0951    402.17657    130.36918    37045.226 
   68100    305.30703   -1392.3447    413.85258    390.24152    127.50506    37045.226 
   68200     290.3617   -1366.3952    412.79362    348.13008    111.02267    37045.226 
   68300    294.05376    -1439.095    406.52685    285.71557    -191.0434    37045.226 
   68400    296.50816    -1449.145    434.01211     314.1542   -32.386895    37045.226 
   68500    294.39321   -1419.8328    432.91463    332.88729     151.0816    37045.226 
   68600    295.56855   -1431.1499    414.87335     308.7982    299.76443    37045.226 
   68700    285.30659   -1457.8713    450.85541    272.05303    473.65991    37045.226 
   68800    312.39077   -1442.2662    427.87963    386.10447    475.83981    37045.226 
   68900    303.61618   -1443.6429    401.08064    318.59107    404.78433    37045.226 
   69000    296.05996   -1465.4809    442.12927     303.9261    42.242433    37045.226 
   69100    309.89803   -1407.2769    424.69688    406.73571    494.32046    37045.226 
   69200    295.96412   -1429.4876    423.54594    320.90637    466.80285    37045.226 
   69300    302.83269   -1407.3018    420.99517    371.33417    980.58091    37045.226 
   69400     306.6283   -1417.0474    426.96028    384.56992    532.76949    37045.226 
   69500    293.72039   -1459.1771    426.25991    283.87194    944.03661    37045.226 
   69600    296.87108   -1457.1229    408.00624    281.79749   -56.233056    37045.226 
   69700    305.30484    -1408.502    410.20777    370.42954     96.37258    37045.226 
   69800    305.68634   -1454.8337    414.29345     329.8939   -557.82446    37045.226 
   69900     302.6764   -1485.2225    411.06892     282.7866     -461.784    37045.226 
   70000    307.83515   -1488.5355    419.85031    311.38234    -489.3523    37045.226 
   70100    297.35467   -1456.4154    429.60342    306.27017   -591.54798    37045.226 
   70200    292.78817   -1394.0923    433.08535    351.60294   -723.52821    37045.226 
   70300    294.19676   -1462.7167    407.91829    264.12637   -588.60249    37045.226 
   70400     299.4812   -1455.7104    419.60112    306.50631   -212.03907    37045.226 
   70500     307.7235   -1450.4481    429.93827    359.05717    222.11121    37045.226 
   70600    294.66762    -1417.227    416.28692    320.09567    55.266953    37045.226 
   70700    306.75455   -1424.3028    425.86147    376.78173    205.22235    37045.226 
   70800    302.41762   -1382.1765    441.40206    415.00556    865.29064    37045.226 
   70900    313.78667   -1398.9871    458.67758    466.43954    884.21435    37045.226 
   71000    306.09039   -1412.2074    399.43509    359.47328    1167.7718    37045.226 
   71100     295.6467   -1395.5091    420.32728    350.24322    -18.11619    37045.226 
   71200    298.87337   -1400.7309    435.96495    375.12471    393.40079    37045.226 
   71300    294.01684   -1461.1176    420.00278    277.00337   -103.30984    37045.226 
   71400    304.46982   -1408.7719    428.58842     384.7968   -38.013356    37045.226 
   71500    311.13748   -1411.7122    434.63851    417.79868    134.10119    37045.226 
   71600    302.77576   -1434.9787    421.10954    343.51648    38.199877    37045.226 
   71700    301.20291   -1419.5964    415.92019    346.65804    547.83714    37045.226 
   71800     298.6427   -1458.4406    425.41549    305.83141    67.242865    37045.226 
   71900    302.82129     -1482.47    416.55625    291.67601    131.63222    37045.226 
   72000    298.06048   -1447.2291    425.54669    314.56394    137.39589    37045.226 
   72100    309.58651   -1421.1146    436.51128    403.31588    754.23034    37045.226 
   72200    306.75683   -1437.8222    438.65256    376.06366    89.590289    37045.226 
   72300    312.16184   -1432.4815    428.84657    395.82981   -275.00611    37045.226 
   72400    299.12989    -1405.278    425.18969    360.95234   -366.40532    37045.226 
   72500    304.78473   -1403.6315     423.5983    386.35886    27.824921    37045.226 
   72600    292.91141   -1414.0434    420.57479    319.69378    157.17189    37045.226 
   72700    304.49897   -1397.8874    431.70083    398.92442   -111.93396    37045.226 
   72800    303.72474   -1373.8325    420.34603    408.15355   -289.74335    37045.226 
   72900     299.0109   -1429.3758    424.89796     336.0294   -113.13261    37045.226 
   73000    295.06731   -1382.8763    422.74144    362.69272   -25.576838    37045.226 
   73100    318.55493   -1429.3942    423.30664    422.03831   -177.22971    37045.226 
   73200     293.6562    -1471.242    396.93246    242.19177    7.8180395    37045.226 
   73300    301.77411   -1430.7835    412.95343    335.06498   -221.02805    37045.226 
   73400    296.08198   -1438.5946    417.70286    306.48477    751.14601    37045.226 
   73500    302.87018   -1420.9044    422.87606    359.78058    829.05879    37045.226 
   73600     305.4772   -1402.3264    437.82475    404.99488    756.02022    37045.226 
   73700    296.12201   -1409.9113    411.34285     328.9875    1037.4895    37045.226 
   73800    310.68006   -1436.0052    411.13077    367.94721    478.94499    37045.226 
   73900    303.45108   -1449.2502    425.24276    336.40569    847.00587    37045.226 
   74000    299.46453     -1424.62    418.67323    336.59417     452.2705    37045.226 
   74100    300.20787   -1391.4356    403.83628    358.27411    114.33063    37045.226 
   74200    304.16072   -1380.2595    430.75719    414.09223    468.59068    37045.226 
   74300    294.91434   -1444.5441    410.66377    288.26143   -192.34046    37045.226 
   74400    293.08931   -1418.1991    412.41002    308.17084    198.18171    37045.226 
   74500    303.18839   -1416.2038     414.2543    357.28598   -103.85288    37045.226 
   74600    298.22936   -1417.7317    400.38179     319.6536   -647.87636    37045.226 
   74700    305.85952   -1397.1086    429.64219    403.74414   -34.709218    37045.226 
   74800    305.48193   -1378.5283    414.66292    405.65242   -334.14573    37045.226 
   74900    301.01228   -1446.1914    431.74436    335.03266   -70.914042    37045.226 
   75000    301.56175   -1400.1225    428.51499    380.33558    264.28902    37045.226 
   75100    289.02308   -1354.2851    441.92661    383.37197    457.38218    37045.226 
   75200     308.7439   -1385.0782    417.76983    416.83321    308.28624    37045.226 
   75300    302.06414   -1423.5806     432.5311    363.14582    129.33321    37045.226 
   75400    303.06195   -1426.8664     421.7652    353.56749    334.65463    37045.226 
   75500    294.53917   -1488.0634    410.97602    243.37242   -304.58493    37045.226 
   75600    297.49627   -1439.3757    427.41484    321.75602   -109.14939    37045.226 
   75700    297.14947   -1482.2507    418.15309    268.06453    401.29413    37045.226 
   75800    300.67404   -1416.4247    404.67227    336.21082   -460.90857    37045.226 
   75900    301.50792   -1429.4207    427.36817    349.64917   -265.96889    37045.226 
   76000    286.95931   -1448.4686    408.24953    246.25923   -274.03217    37045.226 
   76100    293.94686   -1393.5133    412.91092    337.20203   -171.49107    37045.226 
   76200    300.13369    -1407.089    442.62247    381.07427   -372.33928    37045.226 
   76300     291.6431   -1386.7571    426.60194    347.32123   -641.40773    37045.226 
   76400    307.01538   -1387.0341    415.66977     405.0281   -789.49686    37045.226 
   76500    296.04167   -1408.6753    394.67728    313.19777    -79.27272    37045.226 
   76600    302.67676   -1433.4783    413.33689    336.80038    94.754595    37045.226 
   76700    302.35993   -1399.1478    421.12558    377.49916    330.82261    37045.226 
   76800    301.09126   -1478.4904    404.49447    275.83782    73.352284    37045.226 
   76900    306.20866   -1399.2044    418.71628    392.28768     135.2494    37045.226 
   77000    301.07575   -1428.2973    417.75596    339.22284    257.49465    37045.226 
   77100    298.57547   -1396.7975    423.71988    365.47754    371.10734    37045.226 
   77200    293.35968   -1396.1387    425.30768    344.34094    258.10353    37045.226 
   77300     297.6954   -1416.5578     431.3301    349.38195    588.87323    37045.226 
   77400    300.67504   -1378.1516      431.654     401.4702    760.44748    37045.226 
   77500    288.45638   -1374.3022    447.09562    365.98326     965.4357    37045.226 
   77600    298.64687   -1398.3657    416.00836    356.51787    705.66974    37045.226 
   77700    295.43152   -1438.2725    415.03415    301.22204    1051.0985    37045.226 
   77800    294.55805   -1450.1888    431.35004    301.70571    604.74177    37045.226 
   77900    303.22471   -1425.7922    400.49749    334.10358    364.86015    37045.226 
   78000    295.14714   -1377.8457    451.00785    396.34756   -43.424942    37045.226 
   78100     299.8907    -1382.805    396.35515    358.00168   -544.93832    37045.226 
   78200    300.95869   -1399.7554    402.08954    351.57351   -611.77455    37045.226 
   78300    286.86902   -1377.0704     423.6971    332.70022   -176.27172    37045.226 
   78400     298.2132   -1408.6497    423.03793    351.31925   -301.99752    37045.226 
   78500    303.53662     -1414.71    410.52747    356.61418     84.45381    37045.226 
   78600    312.33964   -1394.7598    403.16025    408.66231    179.67431    37045.226 
   78700     303.8204   -1421.8527    430.31267    370.52889    942.91881    37045.226 
   78800    298.21609   -1417.6416     414.6238    333.92622    644.80823    37045.226 
   78900    293.14038   -1394.4852    418.64534    338.34899    283.73574    37045.226 
   79000     303.4152   -1413.7675    439.36522    385.85003    323.98419    37045.226 
   79100    303.88044   -1391.9501    426.41203    396.79998    553.60114    37045.226 
   79200    301.12146   -1374.7971    435.86288    411.03488    822.68693    37045.226 
   79300    288.63201   -1379.0494    424.87742    339.80521   -76.061734    37045.226 
   79400    308.27178   -1418.0907    419.12245    383.05676     152.4138    37045.226 
   79500    308.05244   -1407.0188    433.77508    407.79797    310.42377    37045.226 
   79600    297.96702   -1476.9747     427.1232    285.97587    301.98029    37045.226 
   79700    303.12806    -1409.646    393.28888    342.60791     102.2293    37045.226 
   79800    312.10138     -1465.57    434.26479    367.88847    508.48213    37045.226 
   79900    300.30468   -1406.3283    449.59029    389.56939    433.87605    37045.226 
   80000    304.06198   -1408.8645    445.05969    399.34707    449.87973    37045.226 
   80100    299.29025   -1394.7547    419.41513    366.41998    314.95465    37045.226 
   80200    313.31584   -1386.2247    451.84376    470.25731    833.83367    37045.226 
   80300    302.45965    -1395.464    428.02263     388.5271    1786.2309    37045.226 
   80400    293.34418    -1364.527    450.15977    400.73532     688.1212    37045.226 
   80500    297.11472   -1403.0829     434.7205    363.64397    132.81786    37045.226 
   80600    312.00101   -1401.5649     435.7962    432.97492    156.45414    37045.226 
   80700    305.41557   -1394.2023    446.29655    421.31455   -104.99709    37045.226 
   80800    304.36751   -1397.9171     437.8994    404.50397   -114.08536    37045.226 
   80900    303.60375   -1427.7861    409.15277    342.46431    182.50675    37045.226 
   81000    299.21409   -1375.9934    415.20157    380.62636    227.60852    37045.226 
   81100    297.89891   -1411.0525    417.15477    341.62427    86.759859    37045.226 
   81200    297.00236   -1414.6527    429.80713    346.65708    109.11101    37045.226 
   81300    300.32173   -1441.7654    406.40614    311.02463    321.93652    37045.226 
   81400    295.17357   -1457.4977    408.97536    274.78161   -43.423803    37045.226 
   81500    299.12109   -1469.7804    424.86007    296.08089   -63.869656    37045.226 
   81600    305.95545    -1425.661    413.52875    359.50838    79.984293    37045.226 
   81700    296.11961   -1422.0699    432.41553    337.89078    411.88668    37045.226 
   81800    301.29367   -1431.5553    427.75437    346.94025    89.783107    37045.226 
   81900    300.00799   -1440.1937    424.36209    329.14571   -53.315455    37045.226 
   82000    301.69413   -1454.1653    418.26925    316.64042   -486.70502    37045.226 
   82100    301.71597     -1442.82    418.65999    328.47446   -245.58557    37045.226 
   82200    296.96155   -1413.9517    418.53686    335.90489   -485.72907    37045.226 
   82300    303.70895   -1412.4444    437.95566    387.08048    15.996626    37045.226 
   82400     286.8971   -1423.4553    428.53659    291.28071   -238.07805    37045.226 
   82500    305.03026   -1410.0893     436.7857    394.18924    366.71581    37045.226 
   82600    305.28909   -1402.5646    439.60689    405.69545    -28.44329    37045.226 
   82700    301.02344   -1390.7354    438.61394    397.40826     521.5056    37045.226 
   82800    302.10069   -1417.4858    440.57576    377.44921    31.609225    37045.226 
   82900    303.84112   -1398.7155    447.82341    411.26971   -171.93553    37045.226 
   83000    290.58125   -1432.9292    434.97832    304.76509   -106.46829    37045.226 
   83100    305.73039   -1397.6266    437.48178    410.48675   -671.27427    37045.226 
   83200    297.81586   -1396.6466    422.07358    360.57673   -402.05905    37045.226 
   83300    308.17554   -1444.8578    440.15401    376.88981   -212.48376    37045.226 
   83400    300.96305   -1475.6714    432.26438    305.85194     307.4326    37045.226 
   83500    291.38946   -1454.8239    416.30957    267.82497   -47.414675    37045.226 
   83600     300.3693   -1448.3875    442.93983    341.14946    454.33577    37045.226 
   83700     299.8426   -1444.1909    426.32288    326.36785      530.325    37045.226 
   83800    298.21294   -1487.8888     434.6677    283.70872    706.14204    37045.226 
   83900     295.9645   -1459.2573    434.82021    302.41272    261.54539    37045.226 
   84000    310.05368   -1431.6378    427.41662    385.79231   -433.29733    37045.226 
   84100    295.92077   -1444.0233    418.97102    301.60144   -161.96195    37045.226 
   84200    307.18925   -1448.6723    455.21771    383.71733   -425.79544    37045.226 
   84300    303.90342    -1441.898    423.41112    343.95415   -189.37204    37045.226 
   84400    306.37641    -1426.701    425.81866     372.6455   -606.41799    37045.226 
   84500    295.11094   -1457.5816    432.05107    297.49263   -121.58647    37045.226 
   84600    303.36998   -1472.5129    423.03832      310.575   -209.29225    37045.226 
   84700    309.12412     -1500.93    435.81241    320.72858   -61.204435    37045.226 
   84800    300.13561   -1463.3387    439.38712    321.59788   -182.14044    37045.226 
   84900    311.22053   -1461.6217     433.3551    366.97805   -246.98752    37045.226 
   85000    302.07777   -1457.0189     436.7512    333.98873   -649.42235    37045.226 
   85100    292.11076   -1447.0478    411.42073    273.94591   -601.86238    37045.226 
   85200    297.69871   -1418.7388     415.6839    331.56962    -229.5212    37045.226 
   85300    287.72636   -1411.2682    416.51361    295.16251   -232.62322    37045.226 
   85400    295.78708   -1475.5176    430.66202    281.19884    -426.7198    37045.226 
   85500    294.30966   -1482.6033    429.38004    266.20762    -469.7161    37045.226 
   85600    302.61659   -1421.0955    411.08536     346.6619   -58.717769    37045.226 
   85700    306.88483   -1445.2675       435.36    365.89969   -50.116166    37045.226 
   85800    299.51593   -1420.6955    450.27373    372.34954    -219.7552    37045.226 
   85900    303.42986   -1443.9627    404.15019     320.5055   -54.779472    37045.226 
   86000    313.53722   -1487.2247    439.62969    358.03572    146.21755    37045.226 
   86100    295.74661   -1454.9569    422.95036    293.86644    305.11009    37045.226 
   86200    294.71521    -1477.605    413.11112    256.75521   -445.63744    37045.226 
   86300    308.58405   -1448.1882    447.68212     382.9189   -343.01638    37045.226 
   86400    299.18296   -1508.3277    404.75551    237.70636   -50.378257    37045.226 
   86500    300.53815   -1428.1283    433.73582     352.9616    236.02154    37045.226 
   86600    293.81436   -1426.9347    441.53722    331.81289    256.88887    37045.226 
   86700     291.1701   -1432.1647    426.14429    299.33544    163.09057    37045.226 
   86800    302.88659   -1465.5004    439.85125    332.23326    288.63579    37045.226 
   86900    301.30173   -1425.1675    443.29472    368.90457    400.66695    37045.226 
   87000    308.17834   -1470.2782    430.62874    341.95664    164.95506    37045.226 
   87100    304.60737   -1433.4955     437.9188    370.02023    10.610917    37045.226 
   87200    290.96446   -1428.1633    435.47805    311.74869     560.9829    37045.226 
   87300    295.72408   -1452.9433    417.70722    290.53584    747.43485    37045.226 
   87400    292.00548   -1448.3718    420.52818    281.25734    797.35769    37045.226 
   87500    300.06865    -1497.456    418.75616    266.54945    480.15535    37045.226 
   87600    295.70165    -1473.408    468.26761    320.53099    673.03198    37045.226 
   87700    301.75438   -1430.0168    411.37434    334.16417    551.33477    37045.226 
   87800    294.50366   -1425.4663    415.33871    310.17304   -362.86536    37045.226 
   87900    301.31654   -1422.6035    424.58731    352.82752   -567.38844    37045.226 
   88000    298.94431   -1448.6304    437.92625    329.50451   -370.90639    37045.226 
   88100    309.41857   -1421.4404    415.63478    381.36061   -245.04466    37045.226 
   88200    295.00938   -1463.6215     450.0841    309.03042   -524.70971    37045.226 
   88300    307.10317   -1442.8547    449.06315    382.99444      140.283    37045.226 
   88400    300.63569   -1451.4605    454.02947    350.36036    142.85293    37045.226 
   88500    299.86136   -1405.4281    437.75374    376.64563   -97.394093    37045.226 
   88600    303.79635   -1452.8169    442.81752    351.96163    402.24482    37045.226 
   88700     304.9344   -1420.5707    420.67512    367.16751    108.55984    37045.226 
   88800     297.7847   -1436.7204    429.45747    327.74706    114.95535    37045.226 
   88900     293.1131   -1426.2247    411.16015    299.00202   -419.15445    37045.226 
   89000    305.38405   -1389.7945      448.933    428.21746   -323.71157    37045.226 
   89100    302.25534   -1443.5138    426.56032    338.09906   -318.22542    37045.226 
   89200    307.60238   -1405.8204    438.46585    411.66948   -331.07291    37045.226 
   89300    302.76972   -1446.6294    429.86544    340.59461   -391.77097    37045.226 
   89400    303.97068   -1461.2423    446.59948    348.09977   -248.59861    37045.226 
   89500    309.32766   -1476.9299    415.36871    325.19745    36.080599    37045.226 
   89600    301.49821   -1501.1836    418.96313    269.43765    80.970822    37045.226 
   89700    296.99675   -1504.6168    421.64668    248.50734   -452.59804    37045.226 
   89800    295.14926   -1449.3201    441.35905     315.2339   -254.15626    37045.226 
   89900    299.55157   -1481.6299    422.02539    283.32655    72.241974    37045.226 
   90000    306.00218   -1442.8689    427.67156    356.65273    18.777598    37045.226 
   90100    303.84161   -1447.9341    430.45687    344.68675   -111.55861    37045.226 
   90200    293.62338   -1410.4661    420.50212    326.39029    130.81677    37045.226 
   90300    309.11053   -1471.3293    417.23909    331.69504    152.07692    37045.226 
   90400    295.14232   -1438.8608     435.3219    319.62493    138.58456    37045.226 
   90500    296.24939   -1473.3442     439.1934    293.97621    120.71759    37045.226 
[...]
  983900     303.1079   -1500.8312    449.92961     307.9731    630.54264    37045.226 
  984000    300.10039   -1509.1927     455.2396    291.43845   -466.53339    37045.226 
  984100     300.7487   -1478.3586    482.95224    352.89166   -461.37576    37045.226 
  984200    301.49555   -1420.7076    476.27074    407.20942   -225.14763    37045.226 
  984300    300.47634   -1456.4413    491.41316    382.04889   -167.13333    37045.226 
  984400    306.30807   -1448.5186    472.17382    396.87666   -106.67664    37045.226 
  984500    309.53558   -1512.0737    474.78136    350.39851   -90.124374    37045.226 
  984600    299.27158   -1494.9084    462.60967    309.37712    255.04089    37045.226 
  984700    316.76456   -1504.8765    451.47645    366.69933     174.5533    37045.226 
  984800    299.52138   -1470.7482    477.07636     349.1239    432.13095    37045.226 
  984900    304.41232   -1531.8564    488.39033    321.25646    167.03671    37045.226 
  985000    294.31467    -1551.039    465.34927    233.76364    308.89005    37045.226 
  985100    297.68355   -1531.2829     466.0465    269.32011    97.617285    37045.226 
  985200    304.02267   -1515.2391    458.88036    306.61697    215.89675    37045.226 
  985300    295.09229   -1570.4444    464.93891    217.43401     516.9371    37045.226 
  985400    306.25993   -1553.8755    463.29897    282.42906    421.54726    37045.226 
  985500    291.46938   -1547.8712     457.0735    215.89984   -144.66417    37045.226 
  985600    305.79451    -1536.663    454.27294    288.52899   -99.890296    37045.226 
  985700    293.57341   -1527.3212    459.13636    247.94539   -637.68242    37045.226 
  985800    306.22914     -1500.48    465.48389    337.87151   -605.86941    37045.226 
  985900    297.56997   -1507.6912    435.60283    261.95899   -376.87753    37045.226 
  986000    286.19176   -1532.7726    488.37168    238.63637   -39.612227    37045.226 
  986100    294.53208   -1535.5326    478.07067    262.96609    389.62421    37045.226 
  986200    303.62418   -1529.3268    450.65855    282.52095    127.48014    37045.226 
  986300    304.55129   -1491.6387    476.11963    349.82648   -355.25755    37045.226 
  986400    303.52945   -1510.9788    469.37254    319.15824   -899.17463    37045.226 
  986500    304.53163   -1494.5689     473.2667    343.95522   -843.80249    37045.226 
  986600    297.51252   -1524.3208    458.93517    268.40411   -559.36677    37045.226 
  986700    303.87465   -1487.8183    456.10783    330.60162   -780.29981    37045.226 
  986800    321.67763   -1443.5083    495.84342     494.4604   -308.01091    37045.226 
  986900    291.19993   -1446.8195    486.04129    344.71136   -1013.7006    37045.226 
  987000    290.60081     -1462.57    490.43405    330.66765   -409.86423    37045.226 
  987100     290.2397    -1487.073     481.0255    295.13722   -421.71832    37045.226 
  987200    288.79119   -1498.4409    471.23527    267.48525   -74.947076    37045.226 
  987300    289.30945   -1447.8257    469.42535    318.61392   -526.48441    37045.226 
  987400    298.80082   -1458.3328    477.82997    359.06263   -18.286755    37045.226 
  987500    297.85078    -1462.995    469.13763    341.44893   -217.15358    37045.226 
  987600    292.53337   -1442.1076    467.43198    336.79193    -401.0155    37045.226 
  987700    311.00173   -1488.4351    466.66957    372.49828    303.24083    37045.226 
  987800    300.71894   -1515.6857    446.40781    278.88676   -147.70236    37045.226 
  987900    312.75146    -1508.011    469.66889    363.76594    85.205124    37045.226 
  988000    303.10642   -1480.0145    474.05098    352.90451    306.95975    37045.226 
  988100    291.57172   -1483.7719    467.92749    291.31193    226.93838    37045.226 
  988200    290.44229   -1493.0081    484.47219    293.55701   -73.325726    37045.226 
  988300     306.9311   -1459.7082    467.12648    383.43282    -232.5516    37045.226 
  988400    308.14043   -1461.6909    460.08491    379.83021   -75.943963    37045.226 
  988500    300.59349    -1488.133    472.98598    332.45521   -61.795985    37045.226 
  988600    290.33237   -1500.8705    454.15028    254.87995     510.6067    37045.226 
  988700    301.31336   -1501.4995    468.18342    317.51337   -3.6785833    37045.226 
  988800    287.05049   -1497.5392    449.93619    239.28405   -387.58947    37045.226 
  988900    299.43649   -1501.7017    479.59555    320.30904   -425.95463    37045.226 
  989000    300.26579    -1469.954    447.99198    324.17104   -560.13485    37045.226 
  989100    305.30497   -1518.9205    457.87135    307.67527   -379.85289    37045.226 
  989200    299.32859   -1497.7538    464.55012    308.72778   -184.66127    37045.226 
  989300    302.02372   -1516.1147    450.23378    288.13318   -171.66659    37045.226 
  989400     295.0334   -1532.6366    450.24898    240.28795   -245.58936    37045.226 
  989500    299.06439   -1526.4206    453.58903    267.91543    -313.2116    37045.226 
  989600    309.72736   -1551.7024     456.2162    293.06436   -670.47059    37045.226 
  989700    306.16079   -1518.3025    442.82095    297.07969   -403.56417    37045.226 
  989800     291.3819   -1520.7095    439.73018    225.32602   -101.75943    37045.226 
  989900    299.62472   -1506.7647    457.74022    294.23457   -135.27033    37045.226 
  990000    303.66449   -1483.0837    470.69495    348.98114    329.71191    37045.226 
  990100    304.66838   -1432.1513    454.92715    388.64637    82.469897    37045.226 
  990200    301.92202   -1425.0347     458.6452    387.16867    303.93162    37045.226 
  990300    298.71169   -1486.7014      484.842    337.30637    315.22379    37045.226 
  990400    289.83674   -1448.3869    470.19511    321.18641    159.60189    37045.226 
  990500    303.58899   -1476.6377    454.70718    339.10093   -403.71625    37045.226 
  990600    288.24786   -1513.0811    468.81695    247.99089   -440.62745    37045.226 
  990700    309.05414   -1505.3397     464.5792    344.77195   -130.57286    37045.226 
  990800    299.96406   -1474.6496    456.86732    326.99804   -365.20127    37045.226 
  990900    300.18706   -1472.2123     468.3507     341.9185    101.91699    37045.226 
  991000    301.42213   -1460.2431    480.27499    371.34899   -147.33461    37045.226 
  991100    308.99577   -1442.7045     468.3357    410.90198    68.674265    37045.226 
  991200    296.09619   -1536.6487    447.81677     238.6082   -240.79079    37045.226 
  991300    313.51118   -1473.0741    467.32246     399.7624     125.9888    37045.226 
  991400    304.72426   -1469.1848    481.76271    378.69895    125.35539    37045.226 
  991500    285.89634   -1497.8962    481.15894    264.97555    326.79503    37045.226 
  991600    296.66598   -1507.0097    448.74287    271.72781    238.30508    37045.226 
  991700    307.40484   -1519.3626    490.43865    349.21449   -198.86563    37045.226 
  991800    303.46673   -1511.0937    450.12178    299.51145   -324.59428    37045.226 
  991900    295.24086   -1520.8901    471.32252    274.03808   -57.116241    37045.226 
  992000    311.58427    -1492.269    475.45825    380.06462   -290.32017    37045.226 
  992100    291.05933   -1462.2248     465.7154    308.34983   -121.95427    37045.226 
  992200    308.52578   -1472.8721    445.02064     355.3123    171.91658    37045.226 
  992300    305.41747   -1496.1381    469.14192    342.23258   -272.15542    37045.226 
  992400    293.42499   -1517.0509     454.3052    252.71911   -220.15621    37045.226 
  992500    300.71917   -1511.5206    465.54047    302.18547   -309.64729    37045.226 
  992600    282.87356   -1511.0051    457.46287    214.61906   -258.60443    37045.226 
  992700    287.72869   -1533.8445    438.72642    194.80943   -43.222899    37045.226 
  992800    302.24752   -1520.2229    455.05593    289.85046     137.8642    37045.226 
  992900    300.87918   -1515.7352    457.28703    290.43477   -333.68262    37045.226 
  993000    294.67269   -1489.3177    429.14151    260.88221   -375.51637    37045.226 
  993100    309.86202   -1512.1171    454.09723     331.1344   -533.95545    37045.226 
  993200    306.69733   -1500.2655    454.64139    329.34251   -112.17075    37045.226 
  993300    289.07375   -1510.9979    446.58378    231.54349   -182.61994    37045.226 
  993400    297.43112   -1499.5621    461.03276    294.89548    692.96532    37045.226 
  993500    301.44913   -1505.1371    459.97318     306.2742    539.43463    37045.226 
  993600    297.42873   -1515.7506    491.22222    308.88573    834.69941    37045.226 
  993700    294.04784   -1523.6706    449.50034    244.08689   -10.623703    37045.226 
  993800    291.97764   -1480.8714    459.50677    287.61154   -517.51668    37045.226 
  993900    294.80294   -1507.5852    449.71137    263.76852   -381.99128    37045.226 
  994000    300.97703   -1533.4109    454.02274    269.93344    136.25615    37045.226 
  994100    293.56182   -1502.2434    462.88696     276.7218   -253.93775    37045.226 
  994200    290.47297   -1521.2398    461.13956    242.13025   -23.216319    37045.226 
  994300    294.99337   -1523.6039    455.54039    254.43259    27.259287    37045.226 
  994400    291.20949   -1527.5012    462.27725    240.30846    154.93931    37045.226 
  994500    296.25434   -1534.4418    431.50516     225.2125    359.11225    37045.226 
  994600    293.82138    -1496.288    477.25152    298.20543     476.8607    37045.226 
  994700    306.18605   -1523.5672    459.48033    308.58748    721.04305    37045.226 
  994800    299.00833   -1541.2634    439.17811     238.4104    172.23391    37045.226 
  994900     291.6756   -1549.4292    456.82675    215.01958   -635.19493    37045.226 
  995000    316.89188   -1520.3437    447.68297    348.00943   -304.65735    37045.226 
  995100    289.97883   -1491.4452    463.78084    272.35091   -71.286214    37045.226 
  995200    298.65195   -1493.3477     457.7811    303.33138    567.26335    37045.226 
  995300    297.95272   -1506.8684    462.83562    291.73044    156.97266    37045.226 
  995400      296.163   -1486.2338    474.00105    315.50698    342.45513    37045.226 
  995500    299.93417   -1473.7492    484.59571    355.49294    139.26241    37045.226 
  995600    302.32593     -1466.62    461.80288    350.55183   -450.02335    37045.226 
  995700     300.8274   -1454.2669    458.67741    353.06135   -384.08745    37045.226 
  995800    293.69454   -1502.7685    455.50002     269.4047   -647.49964    37045.226 
  995900    291.37906   -1486.9841    466.65271    285.96128   -792.73744    37045.226 
  996000    298.22438   -1524.0378    470.33123    283.27462    -113.4746    37045.226 
  996100    306.71437   -1507.5441    465.58333    333.08218     494.7968    37045.226 
  996200    290.57996   -1486.3712    472.62826    288.96721    606.48494    37045.226 
  996300    294.04314   -1457.3242    473.50754    334.41941    693.56677    37045.226 
  996400    311.33752    -1491.549    459.52207    363.74225    453.97071    37045.226 
  996500    289.09331   -1483.3589    453.00045    265.68678    87.261745    37045.226 
  996600    302.72082   -1479.1438      491.917    369.91251    73.866326    37045.226 
  996700    301.74038   -1482.3089    457.64622    328.08117   -258.05511    37045.226 
  996800     296.9522   -1474.3885    452.35102    309.24026   -642.10971    37045.226 
  996900    294.67496   -1464.3117    488.20466    344.96156   -100.97365    37045.226 
  997000    303.60047   -1497.3206    448.74709    312.50944   -405.22899    37045.226 
  997100    304.57282     -1536.23    479.98828    309.20036   -172.90585    37045.226 
  997200    298.97806   -1500.2241    457.39362    297.52957   -504.57567    37045.226 
  997300    309.62025   -1494.6325    442.40716    335.84503   -208.32974    37045.226 
  997400    294.87837   -1459.0453    460.15399    323.08922   -372.53573    37045.226 
  997500    315.00233   -1503.2149    467.72826    376.71236   -551.58647    37045.226 
  997600      293.993   -1467.1338    480.27561    331.15305    186.22403    37045.226 
  997700    294.92606   -1467.1692    456.82568    311.85077    221.54688    37045.226 
  997800    294.92569   -1460.9893    455.10666    316.31007    362.81215    37045.226 
  997900    304.59402   -1474.1642    485.01296     376.3859    618.99974    37045.226 
  998000    297.16149   -1488.9393    461.24663    304.52341    900.12246    37045.226 
  998100    295.22703   -1498.0315     466.5693    292.08144    509.14932    37045.226 
  998200    302.22401   -1444.9636    481.38366     391.3321    301.52908    37045.226 
  998300    300.90069   -1508.7922     447.7313    287.91856    354.09506    37045.226 
  998400    294.07363   -1496.4539    446.98522    268.90406   -227.14048    37045.226 
  998500    296.82476   -1538.3387    434.32216    226.68992   -139.87273    37045.226 
  998600    310.32712   -1539.4135    446.47306    298.29897   -245.91298    37045.226 
  998700    288.00029   -1491.5556    475.63384     275.2234    179.82073    37045.226 
  998800    296.11374   -1489.1734     444.1136     282.4591   -9.8784087    37045.226 
  998900    297.34354   -1528.6471    441.71165    246.09679   -455.87333    37045.226 
  999000    299.08696   -1477.9026    429.32671    292.27231   -735.78038    37045.226 
  999100    291.36244    -1517.403    434.43833    223.25343   -537.78367    37045.226 
  999200    300.89787   -1483.6824    478.01898    343.30337   -310.22828    37045.226 
  999300    292.33917   -1469.6797    444.99722    285.91446   -492.09017    37045.226 
  999400    300.70802   -1478.3927    469.10751     338.8304   -380.27385    37045.226 
  999500     306.3696   -1503.0015    459.96692    330.46273    19.614806    37045.226 
  999600    293.21462   -1490.1728     453.4064     277.7553   -169.25145    37045.226 
  999700    314.86132   -1494.2883    455.28783    372.56632    460.43865    37045.226 
  999800    310.31132   -1524.2854    482.08084    348.96403   -30.154506    37045.226 
  999900    306.20814   -1513.7513    472.69134    331.71348    -280.3914    37045.226 
 1000000    301.08312   -1473.0078    482.44986    359.23935     -665.235    37045.226 
 1000100    288.72852   -1466.6902    480.53822    308.25788   -288.62971    37045.226 
 1000200    292.75257   -1448.9035    444.63879    308.18553    193.52553    37045.226 
 1000300     303.3115   -1472.4485    460.04848    347.38738    22.517229    37045.226 
 1000400    295.23883   -1464.8173    477.11822    335.89739   -348.37736    37045.226 
 1000500    302.54446   -1482.5255    465.23028    339.05343    29.180014    37045.226 
 1000600    302.03984   -1506.2727    480.63778    328.45147   -21.446172    37045.226 
 1000700    316.40442   -1533.3302    445.10658    330.26115    115.15771    37045.226 
 1000800    300.76644   -1547.2627    471.05213    272.16696   -209.48374    37045.226 
 1000900    302.91461   -1529.6965    475.04129    303.35286   -117.50278    37045.226 
 1001000    305.52434   -1538.6867    457.34067    288.36182   -404.99453    37045.226 
 1001100    300.10875    -1528.901    450.20717    266.73524   -204.52421    37045.226 
 1001200    305.40859   -1495.7649    462.50801    335.93206     19.95269    37045.226 
 1001300    295.34465   -1482.7319    486.54602    327.88508   -77.191306    37045.226 
 1001400    306.35395   -1497.3869    466.48023    342.52051   -458.69956    37045.226 
 1001500     310.3616   -1505.9769    477.68751     363.1046   -103.79739    37045.226 
 1001600    299.98823   -1530.9558    469.47857    283.41153   -271.17684    37045.226 
 1001700    305.23886   -1466.7664    485.52993    387.19159    808.51433    37045.226 
 1001800    296.41956    -1480.864    473.62752     321.6534    848.78877    37045.226 
 1001900    292.96256     -1506.46    483.81954     290.7512      408.191    37045.226 
 1002000    293.75982   -1474.5557    470.80871    313.21892    359.67287    37045.226 
 1002100    300.61129   -1510.9557    468.97005    305.69641   -156.03937    37045.226 
 1002200    300.42398   -1510.2449    460.50056     297.0979   -583.68345    37045.226 
 1002300    287.36954   -1501.8311    469.38873    255.87505   -380.19907    37045.226 
 1002400    307.78501   -1511.3329    480.16355    348.67346   -375.11619    37045.226 
 1002500    302.26994   -1503.2504    476.94193    328.80944    -611.0567    37045.226 
 1002600     291.9817    -1541.268    451.50502    219.23138   -630.44661    37045.226 
 1002700    299.96246   -1510.8407    469.86264     303.7951    168.92301    37045.226 
 1002800    301.29457   -1505.1547     460.2451    305.83566    135.84158    37045.226 
 1002900    304.36061   -1521.2523    461.33885    304.57721    538.90877    37045.226 
 1003000    298.35922    -1521.891    489.71844    305.41311    78.264784    37045.226 
 1003100    300.36455   -1543.4338    491.12654    294.26863    182.96805    37045.226 
 1003200     303.0814   -1536.1571    465.09925    287.69802    452.57561    37045.226 
 1003300    306.94479    -1486.075    497.52094    387.52192    459.22049    37045.226 
 1003400     297.7344   -1499.1951    466.96457    302.55392    31.575785    37045.226 
 1003500    295.90058   -1519.9737    447.18335     253.7729   -83.449879    37045.226 
 1003600    306.89109   -1568.5239    469.02058    276.33189   -169.42642    37045.226 
 1003700     292.5053    -1512.895    447.35177    245.79843   -639.85387    37045.226 
 1003800    297.00716   -1537.4952    462.42125    256.45023   -916.14107    37045.226 
 1003900    302.40411   -1547.1831    477.53884    286.07522   -456.41332    37045.226 
 1004000    310.50599   -1545.4167    474.11355    320.73817   -609.55024    37045.226 
 1004100    298.41322    -1572.508    453.54869    218.86848   -942.82163    37045.226 
 1004200    295.41171   -1553.8423    458.69568    229.22488    -543.8633    37045.226 
 1004300    297.10087   -1551.6856    448.76202    229.02076   -875.38539    37045.226 
 1004400      303.383   -1539.2268    462.16092     283.0421    1.9939838    37045.226 
 1004500    284.00539   -1533.2244    465.40032    205.41141    22.708903    37045.226 
 1004600    289.67576   -1496.4004    469.95677    272.21285   -64.380612    37045.226 
 1004700    308.80776   -1492.1144    477.05315    369.36665    472.13713    37045.226 
 1004800     305.8575   -1510.3936    455.36478    316.17263    276.43409    37045.226 
 1004900    299.87904   -1549.9248    452.61086    247.08523    23.184159    37045.226 
 1005000    297.65763   -1558.9537    458.07193    233.55859   -458.08187    37045.226 
Loop time of 600.895 on 32 procs for 1000000 steps with 1505 atoms

Performance: 143.786 ns/day, 0.167 hours/ns, 1664.185 timesteps/s
100.0% CPU use with 32 MPI tasks x no OpenMP threads

MPI task timing breakdown:
Section |  min time  |  avg time  |  max time  |%varavg| %total
---------------------------------------------------------------
Pair    | 245.17     | 276.47     | 303.82     | 100.7 | 46.01
Bond    | 1.3686     | 1.4812     | 1.5862     |   5.2 |  0.25
Neigh   | 38.9       | 38.96      | 39.017     |   0.6 |  6.48
Comm    | 245.74     | 272.96     | 304.15     | 101.1 | 45.42
Output  | 0.38371    | 0.39883    | 0.81672    |  11.9 |  0.07
Modify  | 7.6049     | 7.8731     | 8.1428     |   6.0 |  1.31
Other   |            | 2.76       |            |       |  0.46

Nlocal:        47.0312 ave          78 max          17 min
Histogram: 2 2 5 3 5 5 3 1 4 2
Nghost:        1972.94 ave        2046 max        1897 min
Histogram: 1 2 2 4 8 4 4 3 2 2
Neighs:        5372.97 ave       11082 max        1481 min
Histogram: 2 5 5 7 4 3 1 1 3 1

Total # of neighbors = 171935
Ave neighs/atom = 114.24252
Ave special neighs/atom = 2.0066445
Neighbor list builds = 49762
Dangerous builds = 0
The system volume is 37045.2261188075
Lattice vectors
33.3357898768218 0 0
0 33.3357898768218 0
0 0 33.3357898768218
Total wall time: 0:10:05
