LAMMPS data file
 1502 atoms
 1001 bonds
 500 angles
 0 dihedrals
 0 impropers
 3 atom types
 2 bond types
 1 angle types
 0 dihedral types
 1 improper types
 0 15 xlo xhi
 0 15 ylo yhi
 0 15 zlo zhi
 0 0 0 xy xz yz

# Atom types
#
# 1 F_
# 2 H__HB
# 3 O_3

# Bond Coeffs
#
# 1 F_*H__HB
# 2 O_3*H__HB

# Angle Coeffs
#
# 1 O_3

# Dihedral Coeffs
#

# Inversion Coeffs
#
# 1 1

 Masses

 1 19
 2 1.01
 3 16

 Atoms # full

1 1 1 0 4.5334106200879 2.47450825716692 7.37903146119773
2 1 2 0 4.85278850360387 3.74091811519725 7.4039031118156
3 2 2 0 0.830084328046069 7.09615308250301 5.21264512091875
4 2 3 0 1.79008432804607 7.09615308250301 5.21264512091875
5 2 2 0 2.03008432804607 6.16615308250301 5.21264512091875
6 3 2 0 2.82740934446454 13.3198156037275 14.7590655391105
7 3 3 0 3.78740934446454 13.3198156037275 14.7590655391105
8 3 2 0 4.02740934446454 12.3898156037275 14.7590655391105
9 4 2 0 5.32639683617279 14.5831214023661 4.62866652058437
10 4 3 0 6.28639683617279 14.5831214023661 4.62866652058437
11 4 2 0 6.52639683617279 13.6531214023661 4.62866652058437
12 5 2 0 14.2302370809205 9.6842616311647 8.08864472899586
13 5 3 0 15.1902370809205 9.6842616311647 8.08864472899586
14 5 2 0 15.4302370809205 8.7542616311647 8.08864472899586
15 6 2 0 11.8824260662962 11.8203203954641 8.13763010781258
16 6 3 0 12.8424260662962 11.8203203954641 8.13763010781258
17 6 2 0 13.0824260662962 10.8903203954641 8.13763010781258
18 7 2 0 13.3456147501431 1.67906813248061 9.83252001693472
19 7 3 0 14.3056147501431 1.67906813248061 9.83252001693472
20 7 2 0 14.5456147501431 0.749068132480606 9.83252001693472
21 8 2 0 1.18331940189935 8.92351326806471 8.85395967168733
22 8 3 0 2.14331940189935 8.92351326806471 8.85395967168733
23 8 2 0 2.38331940189935 7.99351326806471 8.85395967168733
24 9 2 0 2.86673541457392 3.15704667399637 3.15925888717175
25 9 3 0 3.82673541457392 3.15704667399637 3.15925888717175
26 9 2 0 4.06673541457392 2.22704667399637 3.15925888717175
27 10 2 0 3.85996713579632 15.0337057995517 0.446858016075566
28 10 3 0 4.81996713579632 15.0337057995517 0.446858016075566
29 10 2 0 5.05996713579632 14.1037057995517 0.446858016075566
30 11 2 0 8.44145138558932 9.29241432849318 0.114284934243187
31 11 3 0 9.40145138558932 9.29241432849318 0.114284934243187
32 11 2 0 9.64145138558932 8.36241432849318 0.114284934243187
33 12 2 0 0.267243528943509 10.1295692012087 4.03623564750887
34 12 3 0 1.22724352894351 10.1295692012087 4.03623564750887
35 12 2 0 1.46724352894351 9.19956920120865 4.03623564750887
36 13 2 0 2.02249435518868 10.4906305872742 10.7068531075493
37 13 3 0 2.98249435518868 10.4906305872742 10.7068531075493
38 13 2 0 3.22249435518868 9.56063058727421 10.7068531075493
39 14 2 0 8.44276903473772 10.5740221314505 13.935015531024
40 14 3 0 9.40276903473772 10.5740221314505 13.935015531024
41 14 2 0 9.64276903473772 9.64402213145048 13.935015531024
42 15 2 0 1.45799659003504 14.2066563239228 10.26708482299
43 15 3 0 2.41799659003504 14.2066563239228 10.26708482299
44 15 2 0 2.65799659003504 13.2766563239228 10.26708482299
45 16 2 0 0.491866387166083 14.5516813585442 9.41945673781447
46 16 3 0 1.45186638716608 14.5516813585442 9.41945673781447
47 16 2 0 1.69186638716608 13.6216813585442 9.41945673781447
48 17 2 0 2.91273426890373 1.88671626773663 6.90611070371233
49 17 3 0 3.87273426890373 1.88671626773663 6.90611070371233
50 17 2 0 4.11273426890373 0.956716267736629 6.90611070371233
51 18 2 0 9.94832063952461 1.67009451234713 6.16395955206826
52 18 3 0 10.9083206395246 1.67009451234713 6.16395955206826
53 18 2 0 11.1483206395246 0.740094512347132 6.16395955206826
54 19 2 0 3.45783773853444 6.14840507781133 7.44188557611778
55 19 3 0 4.41783773853444 6.14840507781133 7.44188557611778
56 19 2 0 4.65783773853444 5.21840507781133 7.44188557611778
57 20 2 0 13.9691273371875 1.54423684504814 2.72208223119378
58 20 3 0 14.9291273371875 1.54423684504814 2.72208223119378
59 20 2 0 15.1691273371875 0.614236845048144 2.72208223119378
60 21 2 0 11.1167174256127 3.75598923111334 3.29233378870413
61 21 3 0 12.0767174256127 3.75598923111334 3.29233378870413
62 21 2 0 12.3167174256127 2.82598923111334 3.29233378870413
63 22 2 0 14.2675441601034 0.615954822106287 5.48612598446198
64 22 3 0 15.2275441601034 0.615954822106287 5.48612598446198
65 22 2 0 15.4675441601034 -0.314045177893713 5.48612598446198
66 23 2 0 9.89853046179749 2.50311454333365 0.164994889637455
67 23 3 0 10.8585304617975 2.50311454333365 0.164994889637455
68 23 2 0 11.0985304617975 1.57311454333365 0.164994889637455
69 24 2 0 4.76405631794594 12.6701050570142 3.91244429745711
70 24 3 0 5.72405631794594 12.6701050570142 3.91244429745711
71 24 2 0 5.96405631794594 11.7401050570142 3.91244429745711
72 25 2 0 7.17190695737489 10.4184071816877 12.25803855923
73 25 3 0 8.13190695737489 10.4184071816877 12.25803855923
74 25 2 0 8.37190695737489 9.48840718168765 12.25803855923
75 26 2 0 11.6224247070216 6.92846645642072 1.46201817202382
76 26 3 0 12.5824247070216 6.92846645642072 1.46201817202382
77 26 2 0 12.8224247070216 5.99846645642072 1.46201817202382
78 27 2 0 11.4039341294859 14.3125079844054 9.39865023130551
79 27 3 0 12.3639341294859 14.3125079844054 9.39865023130551
80 27 2 0 12.6039341294859 13.3825079844054 9.39865023130551
81 28 2 0 8.59046927114949 13.4506456045806 3.27027148450725
82 28 3 0 9.55046927114949 13.4506456045806 3.27027148450725
83 28 2 0 9.79046927114949 12.5206456045806 3.27027148450725
84 29 2 0 3.14343798832968 5.3452417177055 11.44469558727
85 29 3 0 4.10343798832968 5.3452417177055 11.44469558727
86 29 2 0 4.34343798832968 4.4152417177055 11.44469558727
87 30 2 0 12.681734494837 14.3400491510425 4.59204353042878
88 30 3 0 13.641734494837 14.3400491510425 4.59204353042878
89 30 2 0 13.881734494837 13.4100491510425 4.59204353042878
90 31 2 0 8.30265603770502 5.61281614046544 9.61313532432541
91 31 3 0 9.26265603770502 5.61281614046544 9.61313532432541
92 31 2 0 9.50265603770502 4.68281614046544 9.61313532432541
93 32 2 0 8.02023245531134 10.008520724196 10.0196203321684
94 32 3 0 8.98023245531134 10.008520724196 10.0196203321684
95 32 2 0 9.22023245531134 9.07852072419599 10.0196203321684
96 33 2 0 3.16696923502721 4.33992892195471 7.10368274361826
97 33 3 0 4.12696923502721 4.33992892195471 7.10368274361826
98 33 2 0 4.36696923502721 3.40992892195471 7.10368274361826
99 34 2 0 2.7490080396831 5.81102157285437 10.4661065374967
100 34 3 0 3.7090080396831 5.81102157285437 10.4661065374967
101 34 2 0 3.9490080396831 4.88102157285437 10.4661065374967
102 35 2 0 12.90351583899 4.81659326510504 4.68477790360339
103 35 3 0 13.86351583899 4.81659326510504 4.68477790360339
104 35 2 0 14.10351583899 3.88659326510504 4.68477790360339
105 36 2 0 6.10390979491174 4.6145115552377 0.0685728283133358
106 36 3 0 7.06390979491174 4.6145115552377 0.0685728283133358
107 36 2 0 7.30390979491174 3.6845115552377 0.0685728283133358
108 37 2 0 3.85717330777086 6.47873219725676 6.28273315611295
109 37 3 0 4.81717330777086 6.47873219725676 6.28273315611295
110 37 2 0 5.05717330777086 5.54873219725676 6.28273315611295
111 38 2 0 5.61968899142928 9.14165736217052 9.0223695372697
112 38 3 0 6.57968899142928 9.14165736217052 9.0223695372697
113 38 2 0 6.81968899142928 8.21165736217052 9.0223695372697
114 39 2 0 13.6047051467188 11.5873787043989 14.9350830505136
115 39 3 0 14.5647051467188 11.5873787043989 14.9350830505136
116 39 2 0 14.8047051467188 10.6573787043989 14.9350830505136
117 40 2 0 1.25279560030438 6.72421427717432 12.3137399065308
118 40 3 0 2.21279560030438 6.72421427717432 12.3137399065308
119 40 2 0 2.45279560030438 5.79421427717432 12.3137399065308
120 41 2 0 13.6197620623 13.7345349408593 10.3174693370238
121 41 3 0 14.5797620623 13.7345349408593 10.3174693370238
122 41 2 0 14.8197620623 12.8045349408593 10.3174693370238
123 42 2 0 4.58554763507098 2.07012440351769 9.88500691135414
124 42 3 0 5.54554763507098 2.07012440351769 9.88500691135414
125 42 2 0 5.78554763507098 1.14012440351769 9.88500691135414
126 43 2 0 0.456132975379005 7.79213460552506 5.56737110135145
127 43 3 0 1.41613297537901 7.79213460552506 5.56737110135145
128 43 2 0 1.65613297537901 6.86213460552506 5.56737110135145
129 44 2 0 8.02213896109722 13.1367281211447 13.2352091430221
130 44 3 0 8.98213896109723 13.1367281211447 13.2352091430221
131 44 2 0 9.22213896109723 12.2067281211447 13.2352091430221
132 45 2 0 1.29764961588196 9.7509343204461 6.35319935856387
133 45 3 0 2.25764961588196 9.7509343204461 6.35319935856387
134 45 2 0 2.49764961588196 8.8209343204461 6.35319935856387
135 46 2 0 12.6800456391368 2.64205155236647 0.356412625405937
136 46 3 0 13.6400456391368 2.64205155236647 0.356412625405937
137 46 2 0 13.8800456391368 1.71205155236647 0.356412625405937
138 47 2 0 11.8889381973725 5.53692963364534 0.0484485528431833
139 47 3 0 12.8489381973725 5.53692963364534 0.0484485528431833
140 47 2 0 13.0889381973725 4.60692963364534 0.0484485528431833
141 48 2 0 9.78428096554242 8.28153164283373 0.663412600988522
142 48 3 0 10.7442809655424 8.28153164283373 0.663412600988522
143 48 2 0 10.9842809655424 7.35153164283372 0.663412600988522
144 49 2 0 1.46035000143573 13.7584516328666 8.79474010085687
145 49 3 0 2.42035000143573 13.7584516328666 8.79474010085687
146 49 2 0 2.66035000143573 12.8284516328666 8.79474010085687
147 50 2 0 -0.69816786984913 13.9718230433669 14.6207601937931
148 50 3 0 0.261832130150869 13.9718230433669 14.6207601937931
149 50 2 0 0.501832130150869 13.0418230433669 14.6207601937931
150 51 2 0 8.69311825532466 2.62465357122943 4.34231605497189
151 51 3 0 9.65311825532466 2.62465357122943 4.34231605497189
152 51 2 0 9.89311825532466 1.69465357122943 4.34231605497189
153 52 2 0 11.5510473148618 5.70343981072307 8.22300984640606
154 52 3 0 12.5110473148618 5.70343981072307 8.22300984640606
155 52 2 0 12.7510473148618 4.77343981072307 8.22300984640606
156 53 2 0 4.39536623351276 8.20449273957871 0.551870805211365
157 53 3 0 5.35536623351276 8.20449273957871 0.551870805211365
158 53 2 0 5.59536623351276 7.27449273957871 0.551870805211365
159 54 2 0 6.18588787081651 14.0261962152459 2.9550452507101
160 54 3 0 7.14588787081651 14.0261962152459 2.9550452507101
161 54 2 0 7.38588787081651 13.0961962152459 2.9550452507101
162 55 2 0 8.7283309937641 2.80280643183738 3.77773128915578
163 55 3 0 9.6883309937641 2.80280643183738 3.77773128915578
164 55 2 0 9.9283309937641 1.87280643183738 3.77773128915578
165 56 2 0 7.8775745623 9.339430054361 8.10648793936707
166 56 3 0 8.8375745623 9.339430054361 8.10648793936707
167 56 2 0 9.0775745623 8.409430054361 8.10648793936707
168 57 2 0 13.4008704351448 13.5652991015837 10.8374576910865
169 57 3 0 14.3608704351448 13.5652991015837 10.8374576910865
170 57 2 0 14.6008704351448 12.6352991015837 10.8374576910865
171 58 2 0 5.34844136025757 7.20725436386652 8.53064903640188
172 58 3 0 6.30844136025757 7.20725436386652 8.53064903640188
173 58 2 0 6.54844136025757 6.27725436386652 8.53064903640188
174 59 2 0 11.1527678409778 7.14738109888509 4.18252599891275
175 59 3 0 12.1127678409778 7.14738109888509 4.18252599891275
176 59 2 0 12.3527678409778 6.21738109888509 4.18252599891275
177 60 2 0 9.16407537457533 8.18574614863843 2.73834676598199
178 60 3 0 10.1240753745753 8.18574614863843 2.73834676598199
179 60 2 0 10.3640753745753 7.25574614863843 2.73834676598199
180 61 2 0 4.95895796732046 13.6508438519109 8.1790891836863
181 61 3 0 5.91895796732046 13.6508438519109 8.1790891836863
182 61 2 0 6.15895796732046 12.7208438519109 8.1790891836863
183 62 2 0 3.8913251906354 13.7175759793632 9.2270503740292
184 62 3 0 4.8513251906354 13.7175759793632 9.2270503740292
185 62 2 0 5.0913251906354 12.7875759793632 9.2270503740292
186 63 2 0 3.21729241797701 6.56048727612011 6.88553553423844
187 63 3 0 4.17729241797701 6.56048727612011 6.88553553423844
188 63 2 0 4.41729241797701 5.63048727612011 6.88553553423844
189 64 2 0 3.57808650864288 10.8905014877114 5.64947124570608
190 64 3 0 4.53808650864288 10.8905014877114 5.64947124570608
191 64 2 0 4.77808650864288 9.96050148771145 5.64947124570608
192 65 2 0 12.0033528520446 14.2237836708687 8.61470866017044
193 65 3 0 12.9633528520446 14.2237836708687 8.61470866017044
194 65 2 0 13.2033528520446 13.2937836708687 8.61470866017044
195 66 2 0 9.07944275692105 0.401225525829941 7.85577301634476
196 66 3 0 10.0394427569211 0.401225525829941 7.85577301634476
197 66 2 0 10.2794427569211 -0.528774474170059 7.85577301634476
198 67 2 0 8.47920437503606 11.8605634597503 0.989854809595272
199 67 3 0 9.43920437503606 11.8605634597503 0.989854809595272
200 67 2 0 9.67920437503606 10.9305634597503 0.989854809595272
201 68 2 0 -0.466039115125313 9.725515671717 13.5468269849662
202 68 3 0 0.493960884874687 9.725515671717 13.5468269849662
203 68 2 0 0.733960884874687 8.795515671717 13.5468269849662
204 69 2 0 1.41628034689464 8.54554941802286 14.5513748168014
205 69 3 0 2.37628034689464 8.54554941802286 14.5513748168014
206 69 2 0 2.61628034689464 7.61554941802286 14.5513748168014
207 70 2 0 9.27753310228698 2.86586821120232 4.44205709849484
208 70 3 0 10.237533102287 2.86586821120232 4.44205709849484
209 70 2 0 10.477533102287 1.93586821120232 4.44205709849484
210 71 2 0 5.6919243028108 11.6226352068502 10.2848908561282
211 71 3 0 6.6519243028108 11.6226352068502 10.2848908561282
212 71 2 0 6.8919243028108 10.6926352068502 10.2848908561282
213 72 2 0 11.7694474796019 14.4959649482649 14.9591741454788
214 72 3 0 12.7294474796019 14.4959649482649 14.9591741454788
215 72 2 0 12.9694474796019 13.5659649482649 14.9591741454788
216 73 2 0 10.7739803991001 1.20359861915 12.9142721614335
217 73 3 0 11.7339803991001 1.20359861915 12.9142721614335
218 73 2 0 11.9739803991001 0.273598619149998 12.9142721614335
219 74 2 0 4.93918615087867 13.2165306182019 1.93852464901283
220 74 3 0 5.89918615087867 13.2165306182019 1.93852464901283
221 74 2 0 6.13918615087867 12.2865306182019 1.93852464901283
222 75 2 0 4.4398404685501 8.19452305598185 8.71480882284231
223 75 3 0 5.3998404685501 8.19452305598185 8.71480882284231
224 75 2 0 5.6398404685501 7.26452305598184 8.71480882284231
225 76 2 0 12.7394220528379 15.1233716662414 1.1852652404923
226 76 3 0 13.6994220528379 15.1233716662414 1.1852652404923
227 76 2 0 13.9394220528379 14.1933716662414 1.1852652404923
228 77 2 0 1.41530038716272 13.0865588229522 12.1738963457756
229 77 3 0 2.37530038716272 13.0865588229522 12.1738963457756
230 77 2 0 2.61530038716272 12.1565588229522 12.1738963457756
231 78 2 0 12.1477284764126 8.59032196150161 0.387872736901045
232 78 3 0 13.1077284764126 8.59032196150161 0.387872736901045
233 78 2 0 13.3477284764126 7.66032196150161 0.387872736901045
234 79 2 0 8.23471673808061 13.8362552136555 11.3428076833952
235 79 3 0 9.19471673808061 13.8362552136555 11.3428076833952
236 79 2 0 9.43471673808061 12.9062552136555 11.3428076833952
237 80 2 0 1.456211590413 10.2415585836302 13.148502294207
238 80 3 0 2.416211590413 10.2415585836302 13.148502294207
239 80 2 0 2.656211590413 9.31155858363025 13.148502294207
240 81 2 0 7.16233153056353 9.88277898909524 1.35069978539832
241 81 3 0 8.12233153056353 9.88277898909524 1.35069978539832
242 81 2 0 8.36233153056353 8.95277898909524 1.35069978539832
243 82 2 0 10.7282694456819 9.50221170246601 13.438563774107
244 82 3 0 11.6882694456819 9.50221170246601 13.438563774107
245 82 2 0 11.9282694456819 8.57221170246601 13.438563774107
246 83 2 0 11.9798519164044 10.6136342305131 8.25943174771965
247 83 3 0 12.9398519164044 10.6136342305131 8.25943174771965
248 83 2 0 13.1798519164044 9.68363423051313 8.25943174771965
249 84 2 0 5.28259663886391 13.0030934726261 0.518344463780522
250 84 3 0 6.24259663886391 13.0030934726261 0.518344463780522
251 84 2 0 6.48259663886391 12.0730934726261 0.518344463780522
252 85 2 0 13.0798102116399 14.4955109739117 14.0179433848243
253 85 3 0 14.0398102116399 14.4955109739117 14.0179433848243
254 85 2 0 14.2798102116399 13.5655109739117 14.0179433848243
255 86 2 0 9.01032138193957 1.09753768349998 1.69769773841836
256 86 3 0 9.97032138193958 1.09753768349998 1.69769773841836
257 86 2 0 10.2103213819396 0.167537683499977 1.69769773841836
258 87 2 0 10.4994729584735 12.1395147304889 6.07557821902446
259 87 3 0 11.4594729584735 12.1395147304889 6.07557821902446
260 87 2 0 11.6994729584735 11.2095147304889 6.07557821902446
261 88 2 0 1.53493725738488 2.80401092529297 0.946828066371381
262 88 3 0 2.49493725738488 2.80401092529297 0.946828066371381
263 88 2 0 2.73493725738488 1.87401092529297 0.946828066371381
264 89 2 0 1.40046080036089 2.60197849403135 9.58183696959168
265 89 3 0 2.36046080036089 2.60197849403135 9.58183696959168
266 89 2 0 2.60046080036089 1.67197849403135 9.58183696959168
267 90 2 0 5.05099909074605 3.85061336722225 1.92570875049569
268 90 3 0 6.01099909074605 3.85061336722225 1.92570875049569
269 90 2 0 6.25099909074605 2.92061336722225 1.92570875049569
270 91 2 0 8.20614735290408 7.18933621928096 8.81016073864885
271 91 3 0 9.16614735290408 7.18933621928096 8.81016073864885
272 91 2 0 9.40614735290408 6.25933621928096 8.81016073864885
273 92 2 0 5.43312411566265 13.8461011559144 0.785703104920685
274 92 3 0 6.39312411566265 13.8461011559144 0.785703104920685
275 92 2 0 6.63312411566265 12.9161011559144 0.785703104920685
276 93 2 0 5.76248773533851 2.68202924210578 4.268788282061
277 93 3 0 6.72248773533851 2.68202924210578 4.268788282061
278 93 2 0 6.96248773533851 1.75202924210578 4.268788282061
279 94 2 0 14.1341878222022 12.068813803317 14.1455544275232
280 94 3 0 15.0941878222022 12.068813803317 14.1455544275232
281 94 2 0 15.3341878222022 11.138813803317 14.1455544275232
282 95 2 0 12.8282529702131 6.92738309892826 8.25139197986573
283 95 3 0 13.7882529702131 6.92738309892826 8.25139197986573
284 95 2 0 14.0282529702131 5.99738309892826 8.25139197986573
285 96 2 0 13.4014904130902 11.722353804335 9.63103918125853
286 96 3 0 14.3614904130902 11.722353804335 9.63103918125853
287 96 2 0 14.6014904130902 10.792353804335 9.63103918125853
288 97 2 0 2.31113086614758 1.36523604666814 2.52568431431428
289 97 3 0 3.27113086614758 1.36523604666814 2.52568431431428
290 97 2 0 3.51113086614758 0.435236046668142 2.52568431431428
291 98 2 0 11.3700271798018 11.498643417554 10.2692995208781
292 98 3 0 12.3300271798018 11.498643417554 10.2692995208781
293 98 2 0 12.5700271798018 10.568643417554 10.2692995208781
294 99 2 0 3.48521962456405 13.5120916708279 4.36673676129431
295 99 3 0 4.44521962456405 13.5120916708279 4.36673676129431
296 99 2 0 4.68521962456405 12.5820916708279 4.36673676129431
297 100 2 0 6.89886121938005 6.53025310527533 6.20158765115775
298 100 3 0 7.85886121938005 6.53025310527533 6.20158765115775
299 100 2 0 8.09886121938005 5.60025310527533 6.20158765115775
300 101 2 0 2.06743523173034 13.688158143023 6.3962307467591
301 101 3 0 3.02743523173034 13.688158143023 6.3962307467591
302 101 2 0 3.26743523173034 12.758158143023 6.3962307467591
303 102 2 0 13.831544735441 14.6712595030572 9.3298946111463
304 102 3 0 14.791544735441 14.6712595030572 9.3298946111463
305 102 2 0 15.031544735441 13.7412595030572 9.3298946111463
306 103 2 0 7.96737215758301 8.75526262371801 4.7812985884957
307 103 3 0 8.92737215758301 8.75526262371801 4.7812985884957
308 103 2 0 9.16737215758301 7.82526262371801 4.7812985884957
309 104 2 0 10.9070203096792 3.04585664923303 9.01294037117623
310 104 3 0 11.8670203096792 3.04585664923303 9.01294037117623
311 104 2 0 12.1070203096792 2.11585664923303 9.01294037117623
312 105 2 0 0.203220062395558 10.3531280746125 0.11911255074665
313 105 3 0 1.16322006239556 10.3531280746125 0.11911255074665
314 105 2 0 1.40322006239556 9.42312807461247 0.11911255074665
315 106 2 0 11.038325539995 3.20230142487213 12.3136319965124
316 106 3 0 11.998325539995 3.20230142487213 12.3136319965124
317 106 2 0 12.238325539995 2.27230142487213 12.3136319965124
318 107 2 0 4.50625189390965 1.70920916641131 11.6699700476602
319 107 3 0 5.46625189390965 1.70920916641131 11.6699700476602
320 107 2 0 5.70625189390965 0.77920916641131 11.6699700476602
321 108 2 0 12.8524237840623 12.9962643903587 14.1064497164916
322 108 3 0 13.8124237840623 12.9962643903587 14.1064497164916
323 108 2 0 14.0524237840623 12.0662643903587 14.1064497164916
324 109 2 0 10.8980959751364 2.77275254525244 14.2595915647689
325 109 3 0 11.8580959751364 2.77275254525244 14.2595915647689
326 109 2 0 12.0980959751364 1.84275254525244 14.2595915647689
327 110 2 0 6.12809648199007 15.0779236216936 13.2230507035274
328 110 3 0 7.08809648199007 15.0779236216936 13.2230507035274
329 110 2 0 7.32809648199007 14.1479236216936 13.2230507035274
330 111 2 0 0.719902716083452 4.2317686583288 11.7936530511361
331 111 3 0 1.67990271608345 4.2317686583288 11.7936530511361
332 111 2 0 1.91990271608345 3.3017686583288 11.7936530511361
333 112 2 0 8.80803432941437 13.6620633890294 6.16994837997481
334 112 3 0 9.76803432941437 13.6620633890294 6.16994837997481
335 112 2 0 10.0080343294144 12.7320633890294 6.16994837997481
336 113 2 0 14.0465634797886 0.988210547193885 10.2166018879507
337 113 3 0 15.0065634797886 0.988210547193885 10.2166018879507
338 113 2 0 15.2465634797886 0.0582105471938848 10.2166018879507
339 114 2 0 1.18799517324194 1.64871897240169 12.9362426663283
340 114 3 0 2.14799517324194 1.64871897240169 12.9362426663283
341 114 2 0 2.38799517324194 0.718718972401693 12.9362426663283
342 115 2 0 -0.153790793409571 2.16253880452365 9.72685500048101
343 115 3 0 0.806209206590429 2.16253880452365 9.72685500048101
344 115 2 0 1.04620920659043 1.23253880452365 9.72685500048101
345 116 2 0 4.286173546426 10.6211042943783 14.8810958932154
346 116 3 0 5.246173546426 10.6211042943783 14.8810958932154
347 116 2 0 5.486173546426 9.69110429437831 14.8810958932154
348 117 2 0 8.63777317383327 2.29551464593038 8.43045104644261
349 117 3 0 9.59777317383327 2.29551464593038 8.43045104644261
350 117 2 0 9.83777317383327 1.36551464593038 8.43045104644261
351 118 2 0 3.23453911623918 3.66069877910428 4.58231862285174
352 118 3 0 4.19453911623918 3.66069877910428 4.58231862285174
353 118 2 0 4.43453911623918 2.73069877910428 4.58231862285174
354 119 2 0 12.1428698259126 8.44168768072501 3.41897703241557
355 119 3 0 13.1028698259126 8.44168768072501 3.41897703241557
356 119 2 0 13.3428698259126 7.51168768072501 3.41897703241557
357 120 2 0 3.64007134616375 6.43371923285536 5.29966274974868
358 120 3 0 4.60007134616375 6.43371923285536 5.29966274974868
359 120 2 0 4.84007134616375 5.50371923285536 5.29966274974868
360 121 2 0 2.77295122199692 14.781262479201 6.68106148252264
361 121 3 0 3.73295122199692 14.781262479201 6.68106148252264
362 121 2 0 3.97295122199692 13.851262479201 6.68106148252264
363 122 2 0 5.41618108327501 1.11810359795578 10.0048428832088
364 122 3 0 6.37618108327501 1.11810359795578 10.0048428832088
365 122 2 0 6.61618108327501 0.188103597955778 10.0048428832088
366 123 2 0 1.81068607184105 5.97743871779181 1.70211779535748
367 123 3 0 2.77068607184105 5.97743871779181 1.70211779535748
368 123 2 0 3.01068607184105 5.04743871779181 1.70211779535748
369 124 2 0 6.6466229902301 14.8200063912105 2.67499495181255
370 124 3 0 7.6066229902301 14.8200063912105 2.67499495181255
371 124 2 0 7.8466229902301 13.8900063912105 2.67499495181255
372 125 2 0 3.92799346751533 8.32058091805317 13.8831850304268
373 125 3 0 4.88799346751533 8.32058091805317 13.8831850304268
374 125 2 0 5.12799346751533 7.39058091805316 13.8831850304268
375 126 2 0 1.16313102931716 10.239223266663 9.17430813191459
376 126 3 0 2.12313102931716 10.239223266663 9.17430813191459
377 126 2 0 2.36313102931716 9.30922326666303 9.17430813191459
378 127 2 0 13.8414169933833 13.5348026889283 3.72984464513138
379 127 3 0 14.8014169933833 13.5348026889283 3.72984464513138
380 127 2 0 15.0414169933833 12.6048026889283 3.72984464513138
381 128 2 0 0.113107108483091 3.37836877716705 2.15193925774656
382 128 3 0 1.07310710848309 3.37836877716705 2.15193925774656
383 128 2 0 1.31310710848309 2.44836877716705 2.15193925774656
384 129 2 0 9.18691261016764 8.06293418555521 2.95139954891056
385 129 3 0 10.1469126101676 8.06293418555521 2.95139954891056
386 129 2 0 10.3869126101676 7.1329341855552 2.95139954891056
387 130 2 0 1.13885117389262 5.93890639645047 9.37817721278407
388 130 3 0 2.09885117389262 5.93890639645047 9.37817721278407
389 130 2 0 2.33885117389262 5.00890639645047 9.37817721278407
390 131 2 0 4.41526963884942 5.27070909430273 2.58608989301138
391 131 3 0 5.37526963884942 5.27070909430273 2.58608989301138
392 131 2 0 5.61526963884942 4.34070909430273 2.58608989301138
393 132 2 0 5.45755057406612 7.94052667025477 10.7004067394882
394 132 3 0 6.41755057406612 7.94052667025477 10.7004067394882
395 132 2 0 6.65755057406612 7.01052667025477 10.7004067394882
396 133 2 0 8.706461791154 8.6631165344175 2.62519438401796
397 133 3 0 9.666461791154 8.6631165344175 2.62519438401796
398 133 2 0 9.906461791154 7.7331165344175 2.62519438401796
399 134 2 0 6.79515924464911 4.19719420880079 4.32592474739067
400 134 3 0 7.75515924464911 4.19719420880079 4.32592474739067
401 134 2 0 7.99515924464911 3.26719420880079 4.32592474739067
402 135 2 0 7.89950669554062 1.31745800067671 11.0333580616862
403 135 3 0 8.85950669554062 1.31745800067671 11.0333580616862
404 135 2 0 9.09950669554062 0.387458000676706 11.0333580616862
405 136 2 0 2.24264664502814 1.09718014643528 14.6488527185284
406 136 3 0 3.20264664502814 1.09718014643528 14.6488527185284
407 136 2 0 3.44264664502814 0.167180146435276 14.6488527185284
408 137 2 0 9.00083848784678 10.897232306134 6.12023692228831
409 137 3 0 9.96083848784678 10.897232306134 6.12023692228831
410 137 2 0 10.2008384878468 9.96723230613396 6.12023692228831
411 138 2 0 8.91552784407511 10.9718015863933 7.22280517453328
412 138 3 0 9.87552784407511 10.9718015863933 7.22280517453328
413 138 2 0 10.1155278440751 10.0418015863933 7.22280517453328
414 139 2 0 -0.580855360748246 15.1012470600568 2.87547663669102
415 139 3 0 0.379144639251754 15.1012470600568 2.87547663669102
416 139 2 0 0.619144639251754 14.1712470600568 2.87547663669102
417 140 2 0 0.0705012660194189 7.20663836034015 13.7693647190463
418 140 3 0 1.03050126601942 7.20663836034015 13.7693647190463
419 140 2 0 1.27050126601942 6.27663836034015 13.7693647190463
420 141 2 0 10.2066236750409 8.9677114101965 11.3146133394912
421 141 3 0 11.1666236750409 8.9677114101965 11.3146133394912
422 141 2 0 11.4066236750409 8.0377114101965 11.3146133394912
423 142 2 0 7.08134601169266 2.71210695774294 10.4367378226016
424 142 3 0 8.04134601169266 2.71210695774294 10.4367378226016
425 142 2 0 8.28134601169266 1.78210695774294 10.4367378226016
426 143 2 0 2.55215700410306 2.60698471492156 6.31818753434345
427 143 3 0 3.51215700410306 2.60698471492156 6.31818753434345
428 143 2 0 3.75215700410306 1.67698471492156 6.31818753434345
429 144 2 0 7.93060602198355 6.45894538070075 2.07859369693324
430 144 3 0 8.89060602198355 6.45894538070075 2.07859369693324
431 144 2 0 9.13060602198355 5.52894538070075 2.07859369693324
432 145 2 0 1.76937300173566 10.8985329714511 9.94523416855372
433 145 3 0 2.72937300173566 10.8985329714511 9.94523416855372
434 145 2 0 2.96937300173566 9.96853297145106 9.94523416855372
435 146 2 0 -0.00964831866323945 11.2079094016831 5.30818899278529
436 146 3 0 0.950351681336761 11.2079094016831 5.30818899278529
437 146 2 0 1.19035168133676 10.2779094016831 5.30818899278529
438 147 2 0 8.04305386307649 14.917668366516 7.52082078019157
439 147 3 0 9.00305386307649 14.917668366516 7.52082078019157
440 147 2 0 9.24305386307649 13.987668366516 7.52082078019157
441 148 2 0 11.351398840053 4.32895410497673 14.95651564328
442 148 3 0 12.311398840053 4.32895410497673 14.95651564328
443 148 2 0 12.551398840053 3.39895410497673 14.95651564328
444 149 2 0 0.157382224425674 13.6661291149817 6.93853790871799
445 149 3 0 1.11738222442567 13.6661291149817 6.93853790871799
446 149 2 0 1.35738222442567 12.7361291149817 6.93853790871799
447 150 2 0 13.6252152621467 12.3238533203863 0.710866854060441
448 150 3 0 14.5852152621467 12.3238533203863 0.710866854060441
449 150 2 0 14.8252152621467 11.3938533203863 0.710866854060441
450 151 2 0 8.19890792059712 15.1711716344021 2.70743370288983
451 151 3 0 9.15890792059712 15.1711716344021 2.70743370288983
452 151 2 0 9.39890792059712 14.2411716344021 2.70743370288983
453 152 2 0 7.24669055242091 7.33255866490304 0.184237594949082
454 152 3 0 8.20669055242091 7.33255866490304 0.184237594949082
455 152 2 0 8.44669055242091 6.40255866490304 0.184237594949082
456 153 2 0 4.42784455066547 6.91209657158703 3.66962128900923
457 153 3 0 5.38784455066547 6.91209657158703 3.66962128900923
458 153 2 0 5.62784455066547 5.98209657158703 3.66962128900923
459 154 2 0 2.59020332872868 4.08141656936146 5.901908359956
460 154 3 0 3.55020332872868 4.08141656936146 5.901908359956
461 154 2 0 3.79020332872868 3.15141656936146 5.901908359956
462 155 2 0 11.8445634415559 3.98792360950261 0.219262103782967
463 155 3 0 12.8045634415559 3.98792360950261 0.219262103782967
464 155 2 0 13.0445634415559 3.05792360950261 0.219262103782967
465 156 2 0 2.27854186247103 14.2463723166753 5.4079022014048
466 156 3 0 3.23854186247103 14.2463723166753 5.4079022014048
467 156 2 0 3.47854186247103 13.3163723166753 5.4079022014048
468 157 2 0 11.9709925346263 4.0129611854814 11.10794210108
469 157 3 0 12.9309925346263 4.0129611854814 11.10794210108
470 157 2 0 13.1709925346263 3.0829611854814 11.10794210108
471 158 2 0 10.5742394474521 9.70592537586577 1.1564537929371
472 158 3 0 11.5342394474521 9.70592537586577 1.1564537929371
473 158 2 0 11.7742394474521 8.77592537586577 1.1564537929371
474 159 2 0 6.3886506487336 10.1200934666581 10.0024938303977
475 159 3 0 7.3486506487336 10.1200934666581 10.0024938303977
476 159 2 0 7.5886506487336 9.19009346665815 10.0024938303977
477 160 2 0 8.03777253415435 7.70004462608136 1.34050410124473
478 160 3 0 8.99777253415436 7.70004462608136 1.34050410124473