LAMMPS (29 Sep 2021 - Update 1)
Reading data file ...
  triclinic box = (0.0000000 0.0000000 0.0000000) to (15.000000 15.000000 15.000000) with tilt (0.0000000 0.0000000 0.0000000)
  2 by 4 by 4 MPI processor grid
  reading atoms ...
  1502 atoms
  scanning bonds ...
  1 = max bonds/atom
  scanning angles ...
  1 = max angles/atom
  reading bonds ...
  1001 bonds
  reading angles ...
  500 angles
Finding 1-2 1-3 1-4 neighbors ...
  special bond factors lj:    0        0        1       
  special bond factors coul:  0        0        1       
     2 = max # of 1-2 neighbors
     1 = max # of 1-3 neighbors
     2 = max # of special neighbors
  special bonds CPU = 0.002 seconds
  read_data CPU = 0.024 seconds
WARNING: Using 'neigh_modify every 1 delay 0 check yes' setting during minimization (../min.cpp:188)
Neighbor list info ...
  update every 1 steps, delay 0 steps, check yes
  max neighbors/atom: 10000, page size: 100000
  master list distance cutoff = 13
  ghost atom cutoff = 13
  binsize = 6.5, bins = 3 3 3
  3 neighbor lists, perpetual/occasional/extra = 3 0 0
  (1) pair hbond/dreiding/lj, perpetual, skip from (3)
      attributes: full, newton on
      pair build: skip
      stencil: none
      bin: none
  (2) pair lj/cut, perpetual, half/full from (3)
      attributes: half, newton on
      pair build: halffull/newton
      stencil: none
      bin: none
  (3) neighbor class addition, perpetual
      attributes: full, newton on
      pair build: full/bin
      stencil: full/bin/3d
      bin: standard
Setting up cg style minimization ...
  Unit style    : real
  Current step  : 0
WARNING: Energy due to 1 extra global DOFs will be included in minimizer energies
Per MPI rank memory allocation (min/avg/max) = 9.203 | 9.517 | 9.641 Mbytes
Step Temp E_pair E_mol TotEng Press Volume 
       0            0 2.5761296e+17    186.06703 2.5761296e+17 2.0935244e+19         3375 
    5046            0    -1323.799    25.236991    -1298.562    164.72085    36302.736 
Loop time of 4.1768 on 32 procs for 5046 steps with 1502 atoms

100.0% CPU use with 32 MPI tasks x no OpenMP threads

Minimization stats:
  Stopping criterion = energy tolerance
  Energy initial, next-to-last, final = 
    2.5761295926564e+17  -1297.97283468646  -1298.08179360181
  Force two-norm initial, final = 3.5887435e+19 135.49905
  Force max component initial, final = 1.7332779e+19 117.80181
  Final line search alpha, max atom move = 2.9747610e-05 0.0035043223
  Iterations, force evaluations = 5046 5048

MPI task timing breakdown:
Section |  min time  |  avg time  |  max time  |%varavg| %total
---------------------------------------------------------------
Pair    | 1.4509     | 2.4116     | 3.4103     |  32.4 | 57.74
Bond    | 0.0067691  | 0.010068   | 0.012982   |   1.7 |  0.24
Neigh   | 0.089381   | 0.089567   | 0.089828   |   0.0 |  2.14
Comm    | 0.33822    | 1.3372     | 2.3001     |  43.5 | 32.01
Output  | 0          | 0          | 0          |   0.0 |  0.00
Modify  | 0          | 0          | 0          |   0.0 |  0.00
Other   |            | 0.3284     |            |       |  7.86

Nlocal:        46.9375 ave          65 max          29 min
Histogram: 2 2 2 5 4 6 4 3 3 1
Nghost:        2031.56 ave        2091 max        1975 min
Histogram: 1 1 8 4 4 3 2 5 2 2
Neighs:        5050.47 ave        7241 max        3018 min
Histogram: 2 1 4 7 4 4 4 2 2 2

Total # of neighbors = 161615
Ave neighs/atom = 107.59987
Ave special neighs/atom = 1.9986684
Neighbor list builds = 93
Dangerous builds = 0
1500 atoms in group WAT
2 atoms in group MOL
Neighbor list info ...
  update every 2 steps, delay 10 steps, check yes
  max neighbors/atom: 10000, page size: 100000
  master list distance cutoff = 13
  ghost atom cutoff = 13
  binsize = 6.5, bins = 6 6 6
  4 neighbor lists, perpetual/occasional/extra = 3 1 0
  (1) pair hbond/dreiding/lj, perpetual, skip from (4)
      attributes: full, newton on
      pair build: skip
      stencil: none
      bin: none
  (2) pair lj/cut, perpetual, half/full from (4)
      attributes: half, newton on
      pair build: halffull/newton
      stencil: none
      bin: none
  (3) compute group/group, occasional, copy from (2)
      attributes: half, newton on
      pair build: copy
      stencil: none
      bin: none
  (4) neighbor class addition, perpetual
      attributes: full, newton on
      pair build: full/bin
      stencil: full/bin/3d
      bin: standard
Setting up Verlet run ...
  Unit style    : real
  Current step  : 5046
  Time step     : 1
Per MPI rank memory allocation (min/avg/max) = 8.058 | 8.080 | 8.105 Mbytes
Step Temp E_pair E_mol TotEng Press Volume 
    5046          300    -1323.799    25.236991    43.696755    1854.8883    36302.736 
    5100    296.34055   -1240.6013    234.14431    319.42871    1814.6458    36302.736 
    5200    295.24498   -1227.4254    150.66469     244.2232    548.90529    36302.736 
    5300    311.09357    -1211.934    206.13938    386.09894    871.62922    36302.736 
    5400    293.70061   -1223.8481    184.86881    275.09481    287.70856    36302.736 
    5500    295.84185   -1255.4241      188.931    257.16128   -477.22444    36302.736 
    5600    297.62246   -1262.3178    179.23551    248.53888   -32.957582    36302.736 
    5700    304.12939   -1277.5024    193.98381    277.21582   -494.36892    36302.736 
    5800    309.76175   -1218.7095    191.75215    358.97745    194.29197    36302.736 
    5900    299.47034    -1239.727     191.8597     292.0217    325.21939    36302.736 
    6000    305.48992   -1197.8539    193.30802     362.2759    118.21401    36302.736 
    6100    308.31329   -1200.5158    212.78708    391.72534    65.903771    36302.736 
    6200    292.89367   -1257.8464    195.63905    248.25624    365.83172    36302.736 
    6300    296.73139   -1280.1349    196.70572    244.20521    504.09184    36302.736 
    6400       292.62   -1263.5827    207.77894    253.43546    341.30097    36302.736 
    6500    304.09402   -1242.4997    210.42389    328.50038   -124.61833    36302.736 
    6600    311.73361    -1211.936    194.56802     377.3893    170.62034    36302.736 
    6700    308.60157   -1200.6621    217.35896    397.44067    243.48346    36302.736 
    6800    301.97667   -1156.0422    219.96733    415.02787    464.06679    36302.736 
    6900     305.0486   -1180.1727    203.62778    388.30225    476.21056    36302.736 
    7000    305.74493   -1182.7965    213.95114    399.11738    632.70559    36302.736 
    7100    304.87367   -1189.9729     212.9761    387.06773    814.24452    36302.736 
    7200    301.58483   -1196.2868    221.53033    374.59319    1140.5499    36302.736 
    7300    295.25482   -1174.7163    228.46646    374.77803    997.12362    36302.736 
    7400    307.28559    -1197.197     217.6253    395.28428    687.15294    36302.736 
    7500    303.41101   -1170.9014     222.9292    409.54812    740.26367    36302.736 
    7600    290.55855    -1182.724    225.38583    342.67766    408.19879    36302.736 
    7700    296.83078     -1209.21    215.92283    334.79189    375.43898    36302.736 
    7800    302.33264   -1203.3105    225.48753     374.8725     454.6089    36302.736 
    7900    295.24815   -1180.8086    226.41558    366.60501    264.08131    36302.736 
    8000    311.15506   -1184.0677    229.62648    437.72746    192.04998    36302.736 
    8100    300.99058   -1183.2368    232.34046    395.79448   -32.610087    36302.736 
    8200    301.67446   -1177.7277    246.61709    418.63999    720.38692    36302.736 
    8300    286.49766   -1193.3213    250.10133    338.62663    555.53692    36302.736 
    8400    303.95098   -1203.4055     237.9957    394.52646    23.004612    36302.736 
    8500    296.89566   -1185.6345    245.03697    387.77183    181.75087    36302.736 
    8600    309.84658   -1197.8553    236.65658    425.11558    86.131662    36302.736 
    8700    291.36443    -1216.675     252.6617    339.60825   -92.985967    36302.736 
    8800    289.26655   -1179.7308    238.97801    353.48246   -21.924423    36302.736 
    8900    294.39431   -1189.1974    238.02813    366.00849    532.80193    36302.736 
    9000    291.26567   -1187.6333     245.4701    361.01646    151.84293    36302.736 
    9100    305.58799    -1176.521     248.1172    438.85675    404.11528    36302.736 
    9200    303.63002    -1191.733    245.33997    412.10717   -94.120189    36302.736 
    9300    294.79149   -1187.7239    237.45534    368.68633    54.702077    36302.736 
    9400     305.2647   -1230.3178    244.06674    379.56299    409.84946    36302.736 
    9500    306.65958   -1227.1405    245.45561    390.37015    113.79834    36302.736 
    9600    291.57857   -1183.4054    257.18265    378.35688    442.49248    36302.736 
    9700    292.47168   -1177.4261    246.33062    377.48007    161.36665    36302.736 
    9800    297.54836   -1192.9388    255.89332    394.24413    98.293593    36302.736 
    9900    305.94985   -1222.3087    252.21492    398.78579    32.425455    36302.736 
   10000    301.85061   -1201.0951    238.25561    387.69931    227.81614    36302.736 
   10100    301.11583   -1195.3949    261.07342    412.92975   -195.36824    36302.736 
   10200    308.76669   -1196.1249    265.71772    451.07547    155.89136    36302.736 
   10300    290.13841   -1211.7984    247.70426    334.04192   -72.919212    36302.736 
   10400    300.73039   -1190.2329    253.66018    408.95393     160.8694    36302.736 
   10500    313.96383   -1183.2178     253.7017    475.21957    391.09513    36302.736 
   10600    299.86442   -1189.8173    272.14264    423.97753      358.707    36302.736 
   10700    301.93361   -1195.1864    250.38268    406.10642    334.33176    36302.736 
   10800    306.66779   -1205.1944    268.96711     435.8645    117.02009    36302.736 
   10900    302.53182   -1216.2851     258.1518    395.45332    272.44738    36302.736 
   11000    294.14289   -1199.7315     254.5122    370.83366    314.29323    36302.736 
   11100    294.52208   -1236.0868    272.37889    354.04151     517.3439    36302.736 
   11200    302.12452   -1210.2049    263.38024    404.93961    531.28824    36302.736 
   11300    300.98929   -1222.4585    282.38177    406.60828     691.8308    36302.736 
   11400    307.54143   -1213.1515    266.72023    429.56934    112.51734    36302.736 
   11500    296.54486   -1271.7091    264.74461    319.83534    103.08756    36302.736 
   11600    305.16262   -1234.0827    275.31942    406.59402   -5.8336129    36302.736 
   11700    303.39777   -1184.1186     277.0741    450.41651    391.50576    36302.736 
   11800    310.26901   -1220.7192    260.72541    428.21053    252.36405    36302.736 
   11900    293.57015    -1222.654    268.77059    359.60698    497.60953    36302.736 
   12000    304.46197   -1220.6028    256.07448    397.69416    646.39764    36302.736 
   12100    296.75952   -1250.7372    268.04958    345.07258    716.21456    36302.736 
   12200    294.54983   -1251.6218    266.51713      332.769    422.61112    36302.736 
   12300    299.46321   -1255.5495    276.76778    361.07533   -287.81014    36302.736 
   12400    307.34974   -1255.3324    262.49071    382.30128    94.242998    36302.736 
   12500    296.91329   -1257.7227    256.88895    327.61444    423.64498    36302.736 
   12600     300.0576   -1260.6911    265.57544    347.40087    301.29405    36302.736 
   12700    294.19659   -1236.1634    270.60759    350.73734    861.49574    36302.736 
   12800    309.16372   -1289.3357    258.50791    352.43123    929.04401    36302.736 
   12900    305.05548   -1274.9628    261.25649    351.17162    372.83032    36302.736 
   13000    290.52395   -1214.8577    278.59022    363.59359    625.67893    36302.736 
   13100    298.25124   -1242.7689    277.86393    369.52957    214.34031    36302.736 
   13200     294.1678   -1227.2179    279.27449    368.22093   -96.553863    36302.736 
   13300    307.34367    -1221.002    271.22449    425.33825   -42.389294    36302.736 
   13400    308.04203   -1215.4377    258.39756     421.2002   -183.71611    36302.736 
   13500     298.5799   -1239.2453    275.83806    372.49767   -73.987488    36302.736 
   13600    294.86529   -1260.0617    272.97548    332.19888    111.50306    36302.736 
   13700     291.6147   -1218.6092    278.37953    364.51163    117.28441    36302.736 
   13800    304.53109   -1217.8816    292.36807    437.01819    141.29095    36302.736 
   13900    294.41007   -1246.0362    264.12426    335.33633    497.20884    36302.736 
   14000    288.40948   -1245.9793    285.02777    329.44899     1206.291    36302.736 
   14100    284.76581   -1242.5357    285.29999    316.86236    1088.6798    36302.736 
   14200    298.06789   -1242.7963    258.94087    349.75865    471.67511    36302.736 
   14300    310.72506   -1236.5611    274.03914    427.72284    529.70351    36302.736 
   14400    306.18232   -1248.3632    297.80447    419.36097    704.90473    36302.736 
   14500    308.31252   -1258.3805    268.86271    389.93284    152.83659    36302.736 
   14600    306.70579   -1225.1169    294.57306    441.71792       385.78    36302.736 
   14700    310.43555   -1224.7969     279.2173     443.3699    461.08648    36302.736 
   14800    298.32094   -1192.5479    284.77319    426.97165    647.05452    36302.736 
   14900    294.62708   -1219.9377    309.22558    407.50715    70.082497    36302.736 
   15000    287.32472   -1231.1739    277.99278    332.36591    454.73237    36302.736 
   15100    296.84009   -1233.2312    306.31227    401.20173    435.20995    36302.736 
   15200    303.24476   -1268.6629    291.66367    379.77722    483.35906    36302.736 
   15300      295.465   -1215.1228    283.00816    389.85361    624.89301    36302.736 
   15400    298.42732   -1237.3918    312.24308    410.07359    110.39066    36302.736 
   15500    299.20107   -1245.0752    293.06345    386.67239    430.77965    36302.736 
   15600    296.97697   -1233.7948    277.55549    372.49378    529.31414    36302.736 
   15700    296.59045     -1272.78    314.66853    368.89227   -268.14786    36302.736 
   15800    303.75268   -1254.4305    279.03382    383.65231    38.904782    36302.736 
   15900    307.87566   -1247.5945    290.83726     420.7388    18.363356    36302.736 
   16000    295.09545   -1237.2636    302.91579    385.96703    192.49959    36302.736 
   16100    298.78604   -1293.1662     289.1393    332.80044   -227.87254    36302.736 
   16200    301.84016    -1308.091    308.68368    351.08473   -63.156386    36302.736 
   16300    301.99284   -1261.5466    305.15189    394.78041   -102.59099    36302.736 
   16400     310.3637   -1277.0958    285.31378    396.84593    306.57954    36302.736 
   16500    303.41258   -1287.9322    316.59534    386.19047   -1.4457256    36302.736 
   16600    299.06799    -1274.384    289.59018    353.29491    360.65613    36302.736 
   16700    306.41642   -1290.3069     298.5377    379.19788    77.698059    36302.736 
   16800    307.23081   -1292.3613    300.11408    382.36362    336.01836    36302.736 
   16900     301.1282    -1275.892    304.35638    375.77091    838.14088    36302.736 
   17000    302.90182   -1283.4629    308.73425    380.51341    824.45439    36302.736 
   17100    294.66273   -1319.6069    301.20348    299.97533    301.20592    36302.736 
   17200    294.99138   -1328.3798    301.62915    293.09855   -101.96358    36302.736 
   17300    289.75154   -1328.1816    303.37455    271.59806    71.101842    36302.736 
   17400    307.21754   -1292.5708    301.07727    383.05795   -210.27068    36302.736 
   17500    297.77887   -1284.0635    326.23381    374.49132    190.54767    36302.736 
   17600    303.22635   -1308.3892    313.06738     361.3723    100.50746    36302.736 
   17700    297.65015   -1268.5337    305.37808    368.58951    125.55082    36302.736 
   17800    304.57813   -1259.2478    327.66694    431.16133    311.22812    36302.736 
   17900     297.3962   -1302.2465    324.28042    352.64273     337.1515    36302.736 
   18000    307.00021    -1303.857    313.66343    383.38546    490.48569    36302.736 
   18100    301.33631   -1269.8808    320.40366    398.76056    311.79031    36302.736 
   18200    300.11782   -1305.3498     305.9968     343.4329    607.35464    36302.736 
   18300    297.47584   -1288.7582    306.74064    348.94762     670.4568    36302.736 
   18400    288.05307   -1277.4156    311.80023    323.19045    1203.4269    36302.736 
   18500     291.7884     -1298.09    318.44892    325.87735    513.47321    36302.736 
   18600     294.5915   -1277.7099    314.33278    354.68292    817.06757    36302.736 
   18700    296.14905    -1305.547    316.64463    336.12651    361.56013    36302.736 
   18800    289.45013   -1255.9902    318.76553    357.83185    228.71752    36302.736 
   18900    288.25597   -1312.3573    320.08067    297.43706   -38.749643    36302.736 
   19000    302.32446   -1269.7713    320.85677    403.74431    97.714103    36302.736 
   19100    305.38568     -1252.77    320.83301    434.41835    334.40169    36302.736 
   19200    300.99944   -1253.4612    308.91319    402.18241   -38.533106    36302.736 
   19300     314.6756   -1269.9022    303.45825    441.47639    22.918475    36302.736 
   19400    294.55276    -1281.602    315.92498    352.20975   -301.17077    36302.736 
   19500    296.86151   -1294.7053    316.11307    349.62434    634.88443    36302.736 
   19600    291.90794   -1266.6876    330.41381    369.77953    338.34067    36302.736 
   19700    296.33956   -1257.4608    309.77955    378.19995    624.74788    36302.736 
   19800    297.16011   -1246.4012    347.35406    430.50537    18.741375    36302.736 
   19900    298.54765    -1201.477    332.19225    466.47593    248.20488    36302.736 
   20000     295.0177   -1267.7099    315.33092    367.58799   -31.606779    36302.736 
   20100    291.87271   -1266.0764    320.77402    360.59331    267.76479    36302.736 
   20200    303.66348   -1267.4445    324.50929    415.71465     39.56224    36302.736 
   20300    288.43052   -1303.7795    340.11466    326.82979   -284.45951    36302.736 
   20400    298.85031   -1281.8611    337.49319    392.74694   -178.56055    36302.736 
   20500    305.22354   -1279.5825    334.56839    420.61582     5.695412    36302.736 
   20600    297.99179   -1304.7147    313.53095    342.08988   -128.70772    36302.736 
   20700    296.70103   -1296.2457    317.27088    348.52369   -160.62607    36302.736 
   20800    299.93225   -1317.4038    330.25656    354.80842   -217.40587    36302.736 
   20900    305.07554   -1309.3541    335.95343    391.56708    226.92415    36302.736 
   21000    294.37383   -1290.3936     331.5067    358.19929     619.7948    36302.736 
   21100    309.08406   -1291.4164     319.9339     411.4201    632.68392    36302.736 
   21200    299.12135   -1303.2223    352.57126    387.67649    -31.30656    36302.736 
   21300    298.83551   -1297.0534    336.57202    376.56722     153.3961    36302.736 
   21400    305.04571   -1301.0286    308.46022    372.26589     365.8179    36302.736 
   21500    304.84002   -1272.8673    346.89874    437.94541    262.05561    36302.736 
   21600     301.6755   -1300.6451    353.05691    402.16711    243.67623    36302.736 
   21700    288.34412   -1292.3453    322.86771     320.6305     393.7397    36302.736 
   21800    304.69657   -1301.8634    348.62781    410.03657    72.760967    36302.736 
   21900    305.28269    -1287.558    355.25188    433.58844    131.65687    36302.736 
   22000    293.04684    -1345.721    306.54059    271.96852    64.393782    36302.736 
   22100    301.38554   -1351.4369    317.51911    314.54012     87.50312    36302.736 
   22200    296.07692   -1289.3583    330.84281    366.19063    69.039154    36302.736 
   22300    296.05599   -1309.1411    312.10036    327.57171    531.74502    36302.736 
   22400    296.95244   -1309.3676    355.50932     374.7651    -197.8675    36302.736 
   22500    303.52744   -1235.1895    313.08367    435.93533     279.9486    36302.736 
   22600    299.99796   -1257.1652    329.53287    414.61728    232.32084    36302.736 
   22700    297.10844   -1236.5432    339.41903    432.19722    108.17637    36302.736 
   22800     305.3675   -1240.7633     337.4649    462.97559    375.75669    36302.736 
   22900    303.37233   -1288.3813    329.51427    398.48017   -493.69914    36302.736 
   23000    298.89859   -1278.8051    315.47682    374.00253   -82.253419    36302.736 
   23100    306.78183   -1281.7078    341.89517     432.7894    528.54306    36302.736 
   23200    302.72382   -1286.8574    339.94156    407.52978   -218.45744    36302.736 
   23300    298.46259   -1255.2434    345.32755    425.46427    71.935608    36302.736 
   23400    304.97786   -1306.1163    333.47198    391.88633     395.1147    36302.736 
   23500    293.15581   -1254.6254    324.02612    381.03725    290.07721    36302.736 
   23600    296.58451   -1265.9783     328.8316    389.83045   -2.0118415    36302.736 
   23700    293.22562   -1296.6171    341.67363    357.00543   -287.89634    36302.736 
   23800    289.12444    -1254.589    346.86591    385.87624   -7.7867837    36302.736 
   23900    299.68213   -1294.1233    346.74595    393.45924   -209.63602    36302.736 
   24000    289.35113   -1287.5065    346.26818    353.37528   -180.57324    36302.736 
   24100    305.16516   -1271.2711    334.20529    428.30289    275.10208    36302.736 
   24200    310.51083   -1265.7091    355.23575    478.81291    412.86089    36302.736 
   24300    290.50293   -1277.6027    344.49197    366.65624    352.38611    36302.736 
   24400    304.51659   -1250.5838     338.1629    450.04602    515.05053    36302.736 
   24500    297.82629   -1289.7658    347.60927    390.37664    496.84913    36302.736 
   24600    295.95909   -1287.0242    335.75495    372.90968    249.49451    36302.736 
   24700    307.67579   -1350.9647    332.51429    358.15134    294.56373    36302.736 
   24800    298.29295    -1281.924    350.88001    403.57705    388.46697    36302.736 
   24900    297.35606    -1315.665    322.09986     336.8641    355.20201    36302.736 
   25000    299.58949    -1309.506    308.30024    339.21634    413.60956    36302.736 
   25100    295.13359   -1271.0832    357.55583    406.95818    113.98454    36302.736 
   25200    305.97511   -1272.9393    349.95224    446.00551    719.07329    36302.736 
   25300    306.25268   -1336.4786    341.74492    375.50078    970.72995    36302.736 
   25400    306.17842   -1302.4298    307.80788    375.28029    624.04101    36302.736 
   25500    298.56927   -1296.7146    338.39239    377.53522    431.34934    36302.736 
   25600    284.23863   -1310.5196    355.74561    316.96528    -85.34353    36302.736 
   25700    302.69264   -1308.6259    322.09676    367.77701    281.14927    36302.736 
   25800    291.88291   -1322.4868    343.32074    326.77525    230.98004    36302.736 
   25900    301.87449   -1316.7592    346.50562    380.39198    361.96831    36302.736 
   26000    297.72331   -1355.9685    341.73374    317.83763   -123.52028    36302.736 
   26100    304.71814   -1384.1884    360.21699    339.39722     286.0032    36302.736 
   26200    297.47629   -1331.5272    357.04032    356.48035    111.74794    36302.736 
   26300    297.09647   -1314.1455      356.449    371.57131    601.16107    36302.736 
   26400    288.41539   -1320.5421    367.05482    336.93965    616.34039    36302.736 
   26500    296.41335   -1295.8523    336.53877    366.89789   -120.88954    36302.736 
   26600    301.29604   -1280.8271    378.84389    446.07425   -312.87849    36302.736 
   26700    306.70179   -1356.6461    327.47152    343.06936    107.79846    36302.736 
   26800    300.98453   -1322.1264    340.51845    365.05577    66.379089    36302.736 
   26900    299.52337   -1323.8965    341.28513    357.51489    256.58121    36302.736 
   27000    294.14638   -1340.4684    333.82259    309.42268   -193.37142    36302.736 
   27100    299.43804   -1332.3863    307.39409    314.75227   -36.390554    36302.736 
   27200    300.37454   -1355.5001    319.67264     308.1071    6.7997856    36302.736 
   27300    294.83638   -1302.8421    363.18711    379.50071    420.16219    36302.736 
   27400    303.53053   -1277.4419    360.91255    441.52565     -22.5743    36302.736 
   27500    292.58399   -1257.4253    345.50423    397.15697   -297.91196    36302.736 
   27600     296.0803   -1292.4635    364.86952    397.12727    334.57847    36302.736 
   27700    303.26499   -1270.6536    345.90859    432.12196    459.87182    36302.736 
   27800    308.63765   -1280.1474     333.7502     434.5081   -45.826995    36302.736 
   27900    295.83642   -1279.9303    335.40017    379.09995    119.46946    36302.736 
   28000    294.22025   -1283.1548     341.8795    375.12373     312.9697    36302.736 
   28100    293.85151   -1306.9224    325.31603     333.1429    145.45632    36302.736 
   28200    303.38154   -1342.5122     349.3017    364.17791    467.35501    36302.736 
   28300    303.85244   -1329.7557    336.13061    365.87022    365.00884    36302.736 
   28400     294.0927   -1341.4151     343.3879    317.80109    497.27466    36302.736 
   28500    301.79745   -1299.4656    356.20457    407.03991    422.63971    36302.736 
   28600    304.27728      -1300.9    333.51497     394.0111    260.38282    36302.736 
   28700    312.05315   -1314.6194    344.57666    426.14419    319.38562    36302.736 
   28800    295.36248   -1319.4813    349.40845    351.43675    342.72592    36302.736 
   28900    314.34033    -1351.775    332.12841    386.77368    871.39563    36302.736 
   29000    306.37545   -1329.9361    338.69214    379.53984    280.58386    36302.736 
   29100    307.90771   -1317.4806    359.03315    419.19192    502.96502    36302.736 
   29200    297.33758   -1378.7085    345.88523     297.5233    693.37169    36302.736 
   29300    292.65573   -1351.5299    337.88874     295.7579    393.05901    36302.736 
   29400    298.55465   -1370.8665    345.51667    310.44213     41.38711    36302.736 
   29500    305.49303    -1356.117    322.37277    333.09147   -106.46721    36302.736 
   29600     294.7308   -1354.8621    336.47849    300.29974    200.90758    36302.736 
   29700    294.02376   -1297.1088     341.0831    359.49421   -66.458291    36302.736 
   29800    292.97961    -1301.367    345.79485    355.27598   -101.53235    36302.736 
   29900    303.90249   -1312.6419    337.00234    384.07967    92.344012    36302.736 
   30000    290.86467   -1304.8797    347.17047     343.6763   -386.45216    36302.736 
   30100    298.22553   -1277.9492    364.25286    420.62315   -511.24909    36302.736 
   30200    299.74923   -1316.0661    349.71158    374.78226   -349.90298    36302.736 
   30300    288.63998   -1315.0668    344.26749    320.63254    30.911335    36302.736 
   30400    304.85564   -1302.6701    348.00921    409.32297     79.11328    36302.736 
   30500    302.55327    -1304.076    357.33757    406.94411   -2.6688433    36302.736 
   30600     302.3836   -1305.3636    357.40686    404.96667    245.43588    36302.736 
   30700      304.195   -1301.9809    342.20704    401.25412    746.06177    36302.736 
   30800    299.51036   -1349.8173    341.10503    331.35581    657.49464    36302.736 
   30900    294.45558   -1377.1898    335.19801    275.46019    495.42176    36302.736 
   31000    294.55831   -1342.7633    357.54149    332.68975    593.96385    36302.736 
   31100    297.43611   -1350.7706    320.44091    300.45775    726.60382    36302.736 
   31200    298.75312    -1356.771    339.00327    318.91225    492.94957    36302.736 
   31300    298.52899   -1309.4716     343.5981    369.80367    366.79748    36302.736 
   31400    310.12112   -1323.1279    341.38938    405.80407    403.64508    36302.736 
   31500    290.12739   -1359.3744    373.47439    312.18674    639.88302    36302.736 
   31600    302.32332   -1337.5931     361.4531    376.51373    755.85211    36302.736 
   31700    305.10786   -1389.4417    359.33002    335.00064    391.16211    36302.736 
   31800    303.78002   -1352.6316    356.82125    363.36101    602.93611    36302.736 
   31900    303.96829   -1312.0208    356.84137    404.83426    1299.7403    36302.736 
   32000    301.41627   -1335.2092     357.2722    370.65843    709.39842    36302.736 
   32100    295.82309   -1320.4003    353.53264    356.70282    735.60934    36302.736 
   32200    298.62187   -1306.0193    348.44327    378.51674    247.74058    36302.736 
   32300    296.80431   -1353.9129     352.3672    326.41487    428.92509    36302.736 
   32400    297.45403   -1389.7634    357.92273    299.02695    463.59571    36302.736 
   32500     295.2424   -1378.3383    344.67375    287.30782    297.71657    36302.736 
   32600    302.15358   -1369.5638    354.96956     337.3001    618.21512    36302.736 
   32700    309.19816   -1353.1365    370.64046    400.91712    211.16424    36302.736 
   32800    309.67439   -1315.0139    383.13303    453.66301    614.24385    36302.736 
   32900     304.9945   -1318.0161    365.40625    411.99527    577.31832    36302.736 
   33000    283.65419   -1357.6204    375.30654    286.81059    375.65026    36302.736 
   33100    296.89761   -1341.2077     344.4126    331.58299    384.91079    36302.736 
   33200    297.94199   -1330.2599    345.93652    348.72742  -0.98251803    36302.736 
   33300    311.60359   -1316.7733    372.81197     450.2142    65.769132    36302.736 
   33400    306.38638    -1316.941    372.17144    426.06311   -92.605586    36302.736 
   33500    291.49595   -1325.4626     370.4405    349.18786   -1.3751403    36302.736 
   33600    296.80525   -1345.0793    361.48892    344.37443   -511.37916    36302.736 
   33700    309.99431   -1321.3494    361.72971    427.35558    75.203221    36302.736 
   33800    299.80831   -1337.8186    367.62697     371.2095    44.296742    36302.736 
   33900    296.82175   -1353.2716    357.48408    332.25112   -94.448295    36302.736 
   34000    297.54809   -1362.3558    357.78546    326.71814    240.46293    36302.736 
   34100    307.20733   -1326.3105    376.26794     424.4632    254.61122    36302.736 
   34200    306.34592     -1390.93    369.16324    348.88488    170.25199    36302.736 
   34300    294.24456   -1327.7825    353.95117    342.67648   -21.619692    36302.736 
   34400    298.58417   -1333.5681    359.94875    362.30468   -152.02974    36302.736 
   34500    296.30944   -1297.4343    376.91318    405.22537   -52.813079    36302.736 
   34600    302.10134   -1296.9228    357.46598     412.2037    393.79758    36302.736 
   34700    299.46891   -1318.4742    354.53914    375.94753    305.25069    36302.736 
   34800    294.45534   -1313.6498    384.97476     388.7758   -207.79268    36302.736 
   34900    306.81514   -1283.5117    355.76912    445.00851    51.793028    36302.736 
   35000    297.28982   -1346.0714    365.62067    349.68215   -19.017005    36302.736 
   35100    299.18833   -1383.9566    359.64251    314.31315    410.55029    36302.736 
   35200    296.02122   -1296.7293    366.96493    394.69253    252.91408    36302.736 
   35300    297.75355   -1347.4607    370.03442    354.78146    400.42866    36302.736 
   35400    301.38632   -1338.1713    374.28125    384.57137    166.09984    36302.736 
   35500    294.56983   -1360.3624    367.24085    324.84157    358.71128    36302.736 
   35600    285.86886    -1331.917    378.76924     325.8855     152.6901    36302.736 
   35700    314.55677   -1370.8543    376.86472    413.39905    899.50197    36302.736 
   35800    298.15651   -1368.7228    382.41616    347.70398    381.96835    36302.736 
   35900    296.58263   -1370.7597    366.69023    322.89929     686.3126    36302.736 
   36000    297.79964   -1357.3334    375.48294    350.56347    550.75347    36302.736 
   36100    301.78228   -1375.0767    362.46249    337.61885      623.304    36302.736 
   36200    302.32448   -1396.5047     366.7413    322.89558    806.00686    36302.736 
   36300    299.75128   -1389.6148    365.93672    317.46781    1493.9582    36302.736 
   36400    295.41869   -1393.8497    362.68433    290.59576    782.05953    36302.736 
   36500    302.38801   -1401.4451    387.43656    338.93469    616.39857    36302.736 
   36600    294.80709   -1398.6819    399.68686    320.02962    285.03157    36302.736 
   36700    303.35943   -1404.1833    366.56825    319.67443   -138.21211    36302.736 
   36800    310.52648   -1394.7299    393.49806     388.1245     436.0772    36302.736 
   36900    310.74285   -1429.5875     369.5057     330.2426     460.7619    36302.736 
   37000    299.54919   -1406.9127     361.1359    294.46489    420.46839    36302.736 
   37100    296.95134   -1395.1299    377.33369    310.82223   -307.08857    36302.736 
   37200    312.49401   -1392.8634     346.3515    351.64746    387.31801    36302.736 
   37300    295.41194   -1408.8412    358.79803     271.6877    375.35552    36302.736 
   37400    309.43109   -1374.6102    387.17956    397.02466    856.12021    36302.736 
   37500    303.65434   -1467.9429    366.02926    256.69531     482.9462    36302.736 
   37600    307.22972   -1407.9743    373.39823    340.02985    747.34997    36302.736 
   37700    293.02661   -1413.5518    357.12416    254.63086    568.77676    36302.736 
   37800    295.14706   -1432.0492    369.89187     258.3885    451.42823    36302.736 
   37900    296.08882   -1388.8785    367.78919    303.67011    413.59101    36302.736 
   38000    295.21119   -1381.1177    376.41734    316.13231    375.86188    36302.736 
   38100    295.23604    -1353.454    373.41672    340.90662    171.63412    36302.736 
   38200    292.76274   -1317.9934    368.54648    360.43097    88.408978    36302.736 
   38300    303.62804   -1320.9156    371.04024    408.61592   -64.402851    36302.736 
   38400    303.10704   -1283.5216    378.17337    450.81201    105.28624    36302.736 
   38500    302.66883   -1347.1255    398.63204     405.7062   -166.83225    36302.736 
   38600    302.41427    -1319.824     414.7689    448.00563    540.07005    36302.736 
   38700    302.79858   -1313.4219    388.72861    430.08683     627.6958    36302.736 
   38800    296.34385   -1292.3658    376.13827     409.6729    467.49983    36302.736 
   38900    305.18873   -1306.7859    391.85407    450.54236    221.28525    36302.736 
   39000    298.00115   -1330.6913    393.72263    396.34686     494.0586    36302.736 
   39100    290.49176   -1379.8598    369.31275    289.16995    391.09946    36302.736 
   39200    295.23739   -1334.7653    392.70952    378.89412    216.81321    36302.736 
   39300     301.4696   -1373.8506    392.03223    367.01567   -2.4543057    36302.736 
   39400    309.53603    -1376.656     380.8179    389.08676    182.18254    36302.736 
   39500    303.62404    -1376.937       361.78     343.3165   -236.93784    36302.736 
   39600    292.87028   -1334.4818    384.87972    360.75689   -98.927603    36302.736 
   39700    298.37732   -1299.7169     396.3272    431.60887    226.95046    36302.736 
   39800    290.29297   -1313.2741    388.95344    374.50702    -414.7042    36302.736 
   39900    305.06772   -1356.7123    412.08022    420.30063    330.76011    36302.736 
   40000     289.2069   -1364.0507    394.84905    324.76666   -263.41338    36302.736 
   40100    298.76196     -1305.12     391.7886    423.38813   -231.02253    36302.736 
   40200    310.24177   -1306.5116    394.66807    476.23892   -22.232792    36302.736 
   40300    293.54356   -1346.3419    389.59726    356.62681    83.584925    36302.736 
   40400    301.86393   -1349.0679    412.55731    414.08778     6.933694    36302.736 
   40500    294.46147    -1311.552    376.83657    382.76291   -296.94075    36302.736 
   40600    305.69251   -1304.9779    398.72067    461.47096   -529.61768    36302.736 
   40700    292.99003   -1349.0863     370.7952    332.60366   -823.04377    36302.736 
   40800    302.99716   -1336.8911    386.48068    405.25824   -750.74201    36302.736 
   40900    289.80081   -1333.6624    387.01657    349.97979   -547.41915    36302.736 
   41000    300.16853   -1288.0338     403.5842    458.56321   -746.93075    36302.736 
   41100    295.91919   -1299.0653     398.5551     423.4902   -676.83027    36302.736 
   41200    305.15614   -1303.2737    411.68188    473.73653   -595.35461    36302.736 
   41300    298.03331   -1289.5185    377.34187    421.28272   -645.44334    36302.736 
   41400    303.38524   -1288.9099    384.50287    452.99801   -635.91531    36302.736 
   41500    299.96769   -1300.6744     409.7903    451.23004    -560.6779    36302.736 
   41600    290.29086    -1338.358    377.95782    338.41796   -27.620172    36302.736 
   41700    304.56726   -1313.8947    363.47446    412.27333    235.24865    36302.736 
   41800     294.1122   -1379.4256    375.18003    311.67007   -82.885791    36302.736 
   41900    295.54461    -1340.501    374.09012    355.91359    374.18414    36302.736 
   42000    305.83449   -1363.5763    370.00836    374.79549    250.87536    36302.736 
   42100    296.42792   -1329.6936    403.10463    399.68758    159.10721    36302.736 
   42200     292.1848   -1325.4481    401.72146    383.56533    254.12888    36302.736 
   42300    301.76678   -1339.3511    405.54192    416.35454    47.043688    36302.736 
   42400     308.0374   -1355.4378    389.36433    412.14622   -413.85118    36302.736 
   42500    310.41467   -1362.5629     399.2353    425.52841   -293.57596    36302.736 
   42600    302.55145   -1398.5089    406.80219    361.96772   -503.45107    36302.736 
   42700    305.71192   -1351.7206    344.71699     360.8114   -28.754517    36302.736 
   42800    291.70515   -1334.9303    409.26541    379.48104   -162.44174    36302.736 
   42900    304.98971   -1361.7324    368.48366    371.33494    255.85893    36302.736 
   43000    293.44769   -1386.4102    365.91935    292.45164   -240.73356    36302.736 
   43100    297.74629   -1378.0784    401.53526    355.63209   -21.839635    36302.736 
   43200    298.92509   -1364.6199    377.01543    349.84494    196.39217    36302.736 
   43300    295.09043   -1397.3187    384.95119    307.92487   -9.0835581    36302.736 
   43400    309.33908   -1342.4011    385.14304     426.7856    335.90121    36302.736 
   43500     295.2225   -1367.3454    392.70105      346.239   -236.96801    36302.736 
   43600    299.24709   -1393.9368    364.44162    309.39496   -437.42912    36302.736 
   43700    296.72131   -1342.9136     364.5719    349.24759   -170.09077    36302.736 
   43800    298.66878   -1374.5974    394.55323    356.25845    247.33294    36302.736 
   43900    298.91365   -1381.6977     365.6825    321.38299    208.59371    36302.736 
   44000    307.43611   -1390.2943    372.54788    357.78291     240.4045    36302.736 
   44100    302.86157   -1391.3274    399.55047    363.28506   -112.98809    36302.736 
   44200    305.12357   -1342.6218     387.9519    410.51278     213.9351    36302.736 
   44300    305.48208    -1385.414    401.22625    382.59889   -183.05304    36302.736 
   44400    302.37857   -1336.1714    378.16579    394.89541   -195.52601    36302.736 
   44500    293.72289   -1307.0755    424.64365    431.74193   -231.87429    36302.736 
   44600    290.71384   -1353.9945    389.87117    336.58735   -238.16956    36302.736 
   44700    300.47144   -1337.7482    374.58182    381.20169   -786.10523    36302.736 
   44800     295.5517    -1342.571    384.79732    364.58248   -282.71675    36302.736 
   44900    296.48483   -1346.6659    379.90869    359.77402   -258.00226    36302.736 
   45000    299.10749   -1324.2388    362.81153    376.83827   -170.90687    36302.736 
   45100     312.3989   -1331.3065    400.71279    467.14013   -34.109404    36302.736 
   45200    296.81069   -1359.6491    395.35717    363.69725    -200.9635    36302.736 
   45300     308.0408   -1331.5925    380.15341     426.7958    145.78707    36302.736 
   45400    301.48894    -1320.822     415.1156    443.21419     281.2319    36302.736 
   45500    301.84899   -1290.3296    400.83487    461.03681    858.35644    36302.736 
   45600    297.23482   -1310.9511    378.75058    397.68632    797.27851    36302.736 
   45700    296.14176   -1350.5366     376.1122    350.57189    849.24003    36302.736 
   45800    307.67679   -1371.7246    415.06869    419.95034    685.42218    36302.736 
   45900    296.58028   -1341.6737    392.21735    377.50189    225.03364    36302.736 
   46000    286.07429   -1349.4767    408.07094    338.54659    20.062679    36302.736 
   46100    302.33641   -1359.3723    384.50143     377.8414    505.66661    36302.736 
   46200    294.33458   -1346.3246    399.33405    369.92005    84.126139    36302.736 
   46300    308.93069    -1367.236    410.38157    425.36201    139.32722    36302.736 
   46400    287.86065   -1361.7785    386.24694    312.41338    -241.4877    36302.736 
   46500    293.66347   -1380.6255    377.94925    311.23161    6.3979437    36302.736 
   46600     303.9585   -1348.3349    392.91142    404.54645    38.321511    36302.736 
   46700    292.64746   -1356.6782     400.6974    353.38121   -171.97507    36302.736 
   46800    290.53267    -1348.191    419.92282     371.6319    175.90834    36302.736 
   46900    292.90282   -1366.6223    407.33712    351.21946    -247.3962    36302.736 
   47000     304.0607   -1383.1653    386.20403    363.46591   -4.8769123    36302.736 
   47100    295.50928   -1380.8108    397.49435    338.84997   -135.31319    36302.736 
   47200    306.21966   -1387.6129    398.91913    381.39294    327.23598    36302.736 
   47300     308.2708   -1412.8197    391.41451    357.85872   -90.823107    36302.736 
   47400    300.52521   -1362.4988    388.04733    370.15718   -531.23095    36302.736 
   47500     301.6973   -1348.3283    401.11633    402.64087    43.681253    36302.736 
   47600    308.91337   -1341.3084    410.95381    451.78438    242.43646    36302.736 
   47700    301.89481   -1363.5798    386.49529    373.65202    332.75126    36302.736 
   47800    300.77733   -1360.1885    385.64906    371.19729    396.51301    36302.736 
   47900    294.57418    -1398.525    380.86316    300.32077    571.94138    36302.736 
   48000    310.97832   -1414.6798    383.82869    360.52683    284.60006    36302.736 
   48100    297.52574   -1437.5637    399.44244    293.06716    382.91739    36302.736 
   48200    308.37199   -1460.8488    392.15945    311.02734    459.28809    36302.736 
   48300    294.23821   -1446.6113     380.9204    250.78848    373.41924    36302.736 
   48400    286.68369    -1413.182    393.58598    263.08301    662.14816    36302.736 
   48500    306.98466   -1402.8569    389.93007    360.58273    686.35847    36302.736 
   48600    300.41796   -1405.4142    397.60262    336.31719    595.46775    36302.736 
   48700    288.51688   -1408.1649    409.11566    291.83176    243.12547    36302.736 
   48800    290.61217   -1408.5643    397.79314    289.48466    97.203684    36302.736 
   48900    287.61006   -1349.5776    409.75448    347.00063   -198.27801    36302.736 
   49000    291.85122   -1378.5115    396.26667    323.55466    16.884219    36302.736 
   49100    313.15378   -1412.3794    383.19957    371.93157   -411.45921    36302.736 
   49200     297.2694   -1408.6581     421.1659    342.54935   -438.47439    36302.736 
   49300    302.06903   -1412.7816    382.56096    321.29534   -147.40432    36302.736 
   49400    300.63079    -1438.817    407.79173    314.05573    172.37299    36302.736 
   49500    308.68036   -1425.8669    424.48345    379.71295   -611.67487    36302.736 
   49600    292.05561    -1416.354    382.23232    272.59236   -532.67718    36302.736 
   49700    304.89644    -1417.496    398.21474    344.88516   -454.79761    36302.736 
   49800    297.71728   -1409.4757    402.92744    325.49716   -419.31594    36302.736 
   49900    294.95833   -1429.1647    389.71709    280.25375   -408.24814    36302.736 
   50000    302.44284   -1394.7961    391.62758    350.01998   -457.71023    36302.736 
   50100     291.2499    -1393.504    401.63255    311.23763   -148.23239    36302.736 
   50200    300.11888   -1371.6443    395.99654    367.14287    173.21383    36302.736 
   50300    288.83149   -1398.6493    392.88792     286.5273   -480.90195    36302.736 
   50400     300.1623   -1423.1941    374.66842    294.45919   -399.82497    36302.736 
   50500    296.19321   -1396.9852    402.29679    330.53805     -1152.64    36302.736 
   50600    298.84623   -1389.3162    379.54127    327.32164    17.140168    36302.736 
   50700    297.41121   -1428.8549    407.62433    309.44547   -462.86385    36302.736 
   50800     303.9184   -1463.1675    394.20486    290.82784   -96.393456    36302.736 
   50900    305.55781   -1449.9671    406.89843    324.05684    449.87202    36302.736 
   51000    290.20176   -1484.4432    400.67144    214.64776    203.98952    36302.736 
   51100    305.19166   -1459.6389    390.44459      296.293    539.22575    36302.736 
   51200     302.2867   -1454.1306    414.07423    312.43348   -111.56981    36302.736 
   51300     291.2561   -1438.7849    393.02931    257.38127    80.683011    36302.736 
   51400    290.86095   -1382.5324    418.21153    337.04798    649.52882    36302.736 
   51500     306.3661   -1364.4253    429.83212     436.1487    620.99828    36302.736 
   51600    311.07995   -1420.7839    385.74324    356.79195    811.88219    36302.736 
   51700    295.44581   -1420.4187    383.00101    284.46475    278.68304    36302.736 
   51800    299.47744   -1407.3922    394.76137    327.28988     487.5214    36302.736 
   51900     298.1631   -1413.7225    400.13103    320.44869    90.882445    36302.736 
   52000    296.84314   -1445.0642    394.46695    277.53712    166.89859    36302.736 
   52100    299.12327   -1413.0593    407.53147    332.80823    582.14812    36302.736 
   52200    305.51834    -1466.748    420.48099     320.6819    354.36832    36302.736 
   52300     297.9713   -1479.3346    410.37323    264.22059    338.09341    36302.736 
   52400      304.447   -1435.2053    404.11204    331.06227    488.60763    36302.736 
   52500    288.21081   -1470.5876     406.3968    225.32086    129.55103    36302.736 
   52600    300.49247    -1542.091    383.99501     186.3662   -321.97837    36302.736 
   52700    293.65315   -1518.1036    397.18988    192.94797   -303.65806    36302.736 
   52800    296.29918   -1434.5662    406.68351     297.8179    119.28953    36302.736 
   52900    299.78476   -1430.7293    386.11302    296.67944   -68.883592    36302.736 
   53000    248.34683    -1431.508    388.42634    68.070716   -19.112845    36302.736 
   53100    293.83458   -1460.1261    415.71594    270.26334    514.34718    36302.736 
   53200    304.88753   -1438.6544    387.86386    313.33595    313.74146    36302.736 
   53300    309.57461   -1424.6119    419.51452    380.00003    172.83176    36302.736 
   53400    295.94084    -1449.994     400.8332    274.93654    16.272182    36302.736 
   53500    303.58229   -1460.6714    411.51413    309.12938    339.70705    36302.736 
   53600     301.2332    -1461.184    397.91883    284.51118    811.37275    36302.736 
   53700    304.04329   -1461.0609    381.91797    281.20624    408.58459    36302.736 
   53800    303.93927   -1433.8826    402.75356    328.75484    626.35858    36302.736 
   53900    313.93458   -1460.2531    394.01193    338.36365    866.59316    36302.736 
   54000    309.46642   -1479.8033    389.19743    294.00755     490.3154    36302.736 
   54100    296.68422   -1467.0781    401.02076    261.36596    553.32616    36302.736 
   54200    301.98822   -1464.3936    434.55051    321.31135   -115.21351    36302.736 
   54300    290.82148   -1432.2481    415.29265    284.23677    354.80668    36302.736 
   54400    299.00639    -1417.149    427.18003    347.84421    500.46315    36302.736 
   54500    302.76307   -1452.9678    401.22134    302.87486    191.61298    36302.736 
   54600    305.01818   -1437.0269    404.89545    332.57962    685.84864    36302.736 
   54700    303.90071   -1434.7595    411.72946    336.68129    315.99846    36302.736 
   54800    302.92145   -1427.2708    382.27071    310.32978    202.38045    36302.736 
   54900    301.05672   -1399.4967    403.22681     350.7168    141.77657    36302.736 
   55000     301.4847   -1384.2081    432.81337    397.50684    186.35614    36302.736 
   55100    307.73933   -1375.5851      413.834     415.1349    351.80147    36302.736 
   55200    289.52689   -1440.7994    432.31564    286.91626   -57.565191    36302.736 
   55300    304.25405   -1407.9326    412.76953    366.12918   -188.33176    36302.736 
   55400    302.11612   -1409.8693    419.82891    361.68631   -162.14519    36302.736 
   55500    300.50546   -1419.1975    414.98409    340.30689   -141.81012    36302.736 
   55600     294.4348   -1405.4375     425.0271    336.94856    217.04078    36302.736 
   55700    290.74887   -1434.7342    412.90308    279.03623   -17.063101    36302.736 
   55800    304.37002   -1406.4097    395.77273    351.17414   -186.96227    36302.736 
   55900    303.08019   -1381.4589    413.00955    387.59078   -158.81195    36302.736 
   56000    296.59109   -1407.4708    414.97568    334.51155   -720.56843    36302.736 
   56100    310.41207   -1457.7575    399.35408    330.44101   -276.98799    36302.736 
   56200    298.40784   -1476.3322    399.80721    258.61013   -182.69793    36302.736 
   56300    294.49893   -1463.8655    410.37896    264.15937      38.0434    36302.736 
   56400    307.90143   -1473.4397    394.10174    298.27339   -508.72168    36302.736 
   56500    314.29068   -1460.3277    411.52742    357.39778    -140.7813    36302.736 
   56600    303.93227   -1448.1005    395.58846    307.34049    18.451396    36302.736 
   56700    293.45738   -1478.6462    389.83934    224.17898   -132.37668    36302.736 
   56800     302.2725   -1474.7714    393.76127    271.41623    416.34926    36302.736 
   56900    307.25886   -1464.1584    405.87548    316.45347    321.20038    36302.736 
   57000    300.61241   -1444.1114    425.91144    326.79881    461.93863    36302.736 
   57100    297.02487   -1496.9227    414.51159    246.53635    66.542242    36302.736 
   57200    303.92662   -1465.1948    420.22366     314.8561    535.03245    36302.736 
   57300    295.46874   -1501.1732    435.12846    255.94026    920.35421    36302.736 
   57400    283.53759   -1491.5146    409.14466    186.23282    351.60688    36302.736 
   57500    299.20804   -1483.8224    407.64585    262.53886     295.0624    36302.736 
   57600    305.21813   -1447.9487    424.77727     342.4343    417.40838    36302.736 
   57700    298.18575   -1458.9525    404.60829     279.7973    554.22737    36302.736 
   57800    291.30121   -1462.4914    416.67202    257.51931    621.69592    36302.736 
   57900     292.4961   -1475.7012    426.80389    259.78753    667.31271    36302.736 
   58000    303.65335     -1416.64    431.34581    373.31035    521.91389    36302.736 
   58100    291.99425    -1434.008    416.53139    288.96281    11.586514    36302.736 
   58200    295.57126   -1442.4442     402.1038    282.10336    -122.0197    36302.736 
   58300    296.64413   -1449.2408    402.53025    280.53336   -197.43435    36302.736 
   58400    312.62894   -1415.0536    400.99828    384.70778    -183.5643    36302.736 
   58500    306.15053   -1415.5875    408.02619     362.2161    -59.71032    36302.736 
   58600    299.13708   -1419.8143    433.03845      351.622    244.19611    36302.736 
   58700    304.28259   -1435.7587     440.7374    366.39866    -135.5812    36302.736 
   58800    308.20922   -1451.5986    393.65149    321.04127   -571.39306    36302.736 
   58900    300.63705   -1449.7492    393.37086    288.73074   -498.51979    36302.736 
   59000     309.4707   -1416.3268    409.00198    377.30774   -387.25417    36302.736 
   59100    302.25069   -1424.7453    411.93754    339.52099   -44.536802    36302.736 
   59200    305.49463   -1392.6999    452.50587    426.64872    184.62563    36302.736 
   59300    293.76981   -1400.2827    424.76747     338.8685   -5.8767017    36302.736 
   59400    313.31143   -1404.1457    413.82372    411.49472   -437.03308    36302.736 
   59500    291.41662   -1385.9401    410.33231    328.24724   -691.16001    36302.736 
   59600      302.982   -1437.6247    393.45974    311.43584   -202.67398    36302.736 
   59700    291.39825   -1421.5123     404.0132     286.2738    85.275906    36302.736 
   59800    295.95975   -1421.3529    383.44111    286.27016   -115.34015    36302.736 
   59900    296.88733   -1425.4176    424.91894    327.83345   -514.83318    36302.736 
   60000    298.02518   -1404.2119    430.32042     359.5316    -444.9844    36302.736 
   60100    301.97457   -1378.5568    417.25033    389.78691     -223.458    36302.736 
   60200    298.54415   -1380.6614     420.8658    375.94939    190.25274    36302.736 
   60300    299.35305   -1394.5599    413.42725    358.23155    343.16964    36302.736 
   60400    298.84228   -1419.2522    416.34717    334.17382    274.90628    36302.736 
   60500    295.96776   -1396.1546    451.85613    379.91932    445.86463    36302.736 
   60600    309.29201   -1424.8892     440.8145    399.75836    206.83288    36302.736 
   60700    304.37168   -1439.2092    404.34639    326.95573    260.35018    36302.736 
   60800    301.64928   -1470.3608    425.74935    305.02651     320.3173    36302.736 
   60900    295.09312   -1468.8622    386.90321    238.34541     152.8743    36302.736 
   61000    298.26874   -1466.3161    401.06589    269.26259    558.07169    36302.736 
   61100    294.58625   -1459.0265    398.55932    257.56943    532.77202    36302.736 
   61200    311.22686   -1406.1886    450.44404    436.74536    820.14735    36302.736 
   61300    311.70976   -1428.5326    419.81563    385.93356    220.30114    36302.736 
   61400    301.81168   -1428.7798    405.70259    327.28737   -24.667449    36302.736 
   61500     304.7252   -1417.1316    431.75056    378.01913   -369.61317    36302.736 
   61600      303.849   -1413.7896    412.32429    358.01464   -359.73037    36302.736 
   61700    301.40185   -1414.4759    448.41369    382.46873    73.965635    36302.736 
   61800    293.90159   -1409.2723    434.63599    340.33701   -27.528918    36302.736 
   61900    297.39111   -1436.3579    405.91776    300.14594   -65.580235    36302.736 
   62000    307.55415   -1445.1158    423.25452    354.19624     555.8353    36302.736 
   62100     304.1522   -1405.0911     426.3291    382.07452   -103.42101    36302.736 
   62200    292.03049   -1362.8925    448.24502    391.95411    72.189469    36302.736 
   62300    302.48842   -1429.1999    415.14648    339.33908   -76.312841    36302.736 
   62400    291.25588   -1445.3762    418.10057    275.86025   -265.96878    36302.736 
   62500    291.35268   -1408.7608    419.70099    314.50912   -79.190044    36302.736 
   62600    289.41199   -1435.4515    416.68573    276.12017    91.155575    36302.736 
   62700    296.12656    -1470.329    430.91677    285.51597   -380.72704    36302.736 
   62800    294.56048   -1430.1083    422.64235     310.4554   -508.62374    36302.736 
   62900    295.83016   -1410.3768    407.21319    320.43852    -628.2351    36302.736 
   63000    300.57047   -1407.9363    433.58449    370.45934   -554.59757    36302.736 
   63100    296.99255   -1393.3081    413.85454    349.34928   -657.92639    36302.736 
   63200    303.18749   -1405.5537    443.34843    394.31493   -76.401358    36302.736 
   63300    288.06831   -1371.6013    430.74586    348.01863   -122.37519    36302.736 
   63400    300.18094   -1414.5735    414.07948    342.57433   -586.48792    36302.736 
   63500    306.41342   -1388.4616    433.85949    416.35159    288.41163    36302.736 
   63600     305.8492   -1410.5993    407.69219    365.52214    692.52462    36302.736 
   63700    295.29381   -1403.1888    431.59252    349.60605   -181.73279    36302.736 
   63800     304.3898   -1425.7916     424.3016    360.40957    -183.8097    36302.736 
   63900     294.3252   -1405.1004    407.77707    319.54529    165.96788    36302.736 
   64000    296.02443   -1417.9064    413.86992    320.43484   -289.68531    36302.736 
   64100    297.66703   -1405.7551    394.95633    321.02183    -481.4487    36302.736 
   64200    300.99108   -1388.7889    460.41117    418.31526   -497.70411    36302.736 
   64300    307.89161   -1414.2495    433.69261    397.01049   -339.42819    36302.736 
   64400    297.84203   -1413.1761    430.06316    349.49068   -134.41836    36302.736 
   64500    302.34371   -1381.1969    416.95737    388.50542   -54.845308    36302.736 
   64600    294.05148   -1424.3971    413.45996    304.70672   -233.96027    36302.736 
   64700    315.35594   -1426.4405    418.96264    403.48639    768.88394    36302.736 
   64800    292.69977   -1430.0402    450.17869    329.73456    440.79746    36302.736 
   64900    299.34234   -1431.5239    423.50776     331.3001    489.15938    36302.736 
   65000    308.54668    -1415.766    412.12639     376.8587    1044.9829    36302.736 
   65100    300.60471   -1414.4075    436.19251    366.74935   -61.554693    36302.736 
   65200    311.30409   -1441.0515    409.15675    360.94068    239.49891    36302.736 
   65300    304.81915   -1448.7402    432.26312     347.3435    180.54675    36302.736 
   65400    288.64821   -1489.9535    434.08112    235.59626    159.83336    36302.736 
   65500    302.53446   -1452.7664    407.69983    308.53184    173.35601    36302.736 
   65600    304.64967   -1464.8626    415.85911    314.05877    131.65045    36302.736 
   65700    303.63574   -1441.0164    426.54935    344.05872    435.61467    36302.736 
   65800    291.71292   -1452.3624    416.27252    269.09084   -228.20643    36302.736 
   65900    297.96051   -1397.6052    432.72214    368.25069   -24.113809    36302.736 
   66000    297.25449   -1420.8782    410.39672    319.49337    599.96611    36302.736 
   66100    302.54538   -1471.1652    430.62323    313.10531    103.16581    36302.736 
   66200    298.48463   -1449.9179    431.30134    316.86211    155.39566    36302.736 
   66300    305.38822   -1440.1425    436.79617    363.02033    260.53194    36302.736 
   66400    300.23861   -1458.9009    423.16771    307.59315    204.31169    36302.736 
   66500    299.70203    -1450.312    419.89855    310.51212    468.79352    36302.736 
   66600    298.33259   -1433.0136    411.17199    312.95684     227.0556    36302.736 
   66700    302.95584   -1482.6139    419.94725    292.81714     545.5226    36302.736 
   66800    302.73755   -1492.7807    413.46411    275.19046    340.77091    36302.736 
   66900    292.70664   -1455.8766     430.8477     284.5979    840.03356    36302.736 
   67000    308.22582   -1468.9182    415.73396    325.87842    591.22478    36302.736 
   67100    302.32776   -1489.1466    428.42612    291.95309    457.25703    36302.736 
   67200     295.1059   -1462.3394    427.17563    285.19787     753.6075    36302.736 
   67300      300.826   -1455.9338    403.10518    293.12585   -66.321167    36302.736 
   67400    294.61947    -1466.992    417.45209     268.6453   -325.47089    36302.736 
   67500    301.75739   -1456.7589    423.24459    316.60735   -172.57977    36302.736 
   67600    297.52669    -1437.925    411.02704    304.29468   -152.92493    36302.736 
   67700    293.57093   -1384.1791    419.59248    348.90723   -85.802409    36302.736 
   67800    290.74901   -1445.3098    419.07102    274.62921    103.07865    36302.736 
   67900    296.90197   -1426.5136    435.50417    337.38818     204.4938    36302.736 
   68000    308.20447   -1442.5212    413.63122    350.07715   -422.97507    36302.736 
   68100    301.10155   -1408.5766    457.04704    395.65773    257.64281    36302.736 
   68200    289.35364   -1439.7729    419.63537    274.48736    212.16847    36302.736 
   68300    299.93942   -1409.5289    433.13049    365.58931   -112.49561    36302.736 
   68400    300.83684   -1365.1571    455.04942    435.89532    71.047897    36302.736 
   68500    297.87838   -1404.3584    421.11425    349.52205    153.43435    36302.736 
   68600    302.55941     -1458.09    454.52162    350.14165    899.90255    36302.736 
   68700     298.9755   -1437.6338    435.63224    335.67342    529.61356    36302.736 
   68800    296.96275   -1458.0079    422.76924    293.43089    242.83757    36302.736 
   68900    307.52415   -1432.5225    435.74206    379.14282    175.19973    36302.736 
   69000    303.43876   -1512.2012     427.8409    273.28416    207.02853    36302.736 
   69100    302.70215   -1480.2071    424.20741    298.34903    291.49931    36302.736 
   69200    302.35302   -1444.9231    417.67934    325.54293    506.04547    36302.736 
   69300    291.58571   -1455.0104    422.45062    272.05183    1001.0943    36302.736 
   69400     302.3524   -1479.4108    439.25108    312.62417    698.05574    36302.736 
   69500    299.10937   -1518.0629    465.97177    286.18275    635.53818    36302.736 
   69600    297.92586   -1495.9297    414.29744    251.34639    383.55906    36302.736 
   69700    293.37582   -1462.0278    446.94281    297.53592    153.38535    36302.736 
   69800    305.31422   -1476.8349    402.34836    291.54908    168.58754    36302.736 
   69900    304.36615   -1464.1534    439.74484    337.38519    113.84568    36302.736 
   70000    293.28378    -1496.617    425.99728    241.58934   -290.50825    36302.736 
   70100    295.87999    -1450.406    447.81499      321.234    65.006081    36302.736 
   70200    298.11585   -1447.1182    427.96897    314.67951    34.501487    36302.736 
   70300    298.95121   -1455.9587    434.64336    316.25097    17.188904    36302.736 
   70400    301.55815   -1444.6567    434.50761    339.08118    -7.135996    36302.736 
   70500    310.08333    -1488.187    446.06346    345.25001    689.03932    36302.736 
   70600    307.46687   -1454.1361    425.55531    347.08619    109.36339    36302.736 
   70700    295.54036   -1442.5712    432.14801    311.88228   -763.20411    36302.736 
   70800    297.59789   -1436.0728    446.18689     341.6254   -542.22596    36302.736 
   70900    308.01823   -1470.9134    420.83216    328.05262   -789.93501    36302.736 
   71000    310.72382   -1498.0692    422.19476    314.36483   -989.03085    36302.736 
   71100    295.80922    -1462.048    409.10777    270.56817   -556.21478    36302.736 
   71200    302.52861   -1439.7907    416.55041    330.33192    58.880288    36302.736 
   71300    297.62089   -1429.1408    457.95798    360.43138    451.27874    36302.736 
   71400    307.24247   -1415.2609    467.12062    426.52276    686.68852    36302.736 
   71500    293.64946   -1451.4434    414.74231     277.1441    131.55692    36302.736 
   71600    289.85693   -1383.4806    451.70738    365.10346   -277.93565    36302.736 
   71700    300.39027   -1383.7722    442.55326    402.78601   -380.41232    36302.736 
   71800    295.61666   -1437.1286    460.92019    346.43841   -24.726328    36302.736 
   71900    297.55326   -1408.5412    404.28114    327.05151    41.625561    36302.736 
   72000    294.48541   -1419.0597    420.64548    319.17114    486.14112    36302.736 
   72100    297.58523   -1404.2465    430.75071    357.95886    206.37813    36302.736 
   72200    306.29711   -1380.4892    440.60151    430.54559    697.55375    36302.736 
   72300    295.79775   -1425.4196    444.12507    342.16254    113.30373    36302.736 
   72400    287.58237   -1410.8633    472.89743    348.73405    154.00887    36302.736 
   72500    295.83001   -1452.2064    441.98016    313.37522    490.33185    36302.736 
   72600    305.86182   -1462.6024    446.65011    352.53341    295.55914    36302.736 
   72700    293.97451   -1415.9603    450.69202    350.03127    276.74237    36302.736 
   72800    294.42165   -1406.5071    445.65772    356.45076    252.30258    36302.736 
   72900    310.71417   -1407.6409    442.76558    425.32072    337.90969    36302.736 
   73000    297.87152   -1377.6324    451.77809    406.88123   -25.095775    36302.736 
   73100    297.09747   -1365.5789    429.81938    393.51279    166.63314    36302.736 
   73200    301.42203   -1406.9929    465.62977    407.25805   -403.47311    36302.736 
   73300    308.40119    -1408.873    435.68812    406.66242   -20.783023    36302.736 
   73400    294.67379    -1417.174    439.28961    340.54385    273.18095    36302.736 
   73500    290.43788   -1376.9876    435.31264    357.80106    137.55528    36302.736 
   73600    307.38777   -1409.4431    462.13876    428.00879    172.83678    36302.736 
   73700    302.66335   -1395.5466    435.70213    394.33065    113.98556    36302.736 
   73800    309.68356   -1387.7637    440.40063    438.22183    853.31886    36302.736 
   73900    296.07666   -1387.4265    471.31655    408.59504    452.64893    36302.736 
   74000    301.73138   -1386.7108    460.13349    423.42797    705.10551    36302.736 
   74100    303.63852   -1416.8412    432.32497    374.02201    1094.8877    36302.736 
   74200    303.82362   -1436.0138    449.67987    373.03247    1056.2954    36302.736 
   74300    302.52459   -1410.8746     447.6248    390.30445    722.68622    36302.736 
   74400    297.79199   -1469.3062    450.68679     313.7603    255.63863    36302.736 
   74500    295.98469   -1391.1276    455.04502    388.21093    746.25472    36302.736 
   74600    307.19998   -1484.8015    460.35984    350.03118     596.9361    36302.736 
   74700    305.06319   -1461.2625    445.40005    349.05004   -170.21596    36302.736 
   74800    291.78501   -1451.2489    429.21682    283.47123   -24.044328    36302.736 
   74900    298.92529   -1414.6116    434.12678    356.96555    510.48365    36302.736 
   75000    291.85632   -1423.8187    424.56439     306.5681    577.13807    36302.736 
   75100    287.52323   -1427.5796    427.53081    286.38652    278.10721    36302.736 
   75200    302.60749   -1461.8674    423.48319    315.54102    619.70393    36302.736 
   75300    299.53944   -1451.9587    420.65433    308.89378    315.92088    36302.736 
   75400    294.67754   -1438.3677      428.248    308.32536    414.86891    36302.736 
   75500    306.96113    -1426.015    451.13802     398.5272    332.19597    36302.736 
   75600    301.47573   -1464.0608    445.20843    330.00911    419.85667    36302.736 
   75700    290.11409   -1462.9899    442.41751    277.45492    303.28779    36302.736 
   75800    303.87461   -1473.3762    433.92951     320.1478   -224.20436    36302.736 
   75900    292.77392   -1495.0003    422.83814    237.76572     -199.181    36302.736 
   76000    299.72828   -1462.9138    437.63695    315.76623    4.6279751    36302.736 
   76100    304.52148    -1491.847    438.45486    309.09658    440.38332    36302.736 
   76200    298.16159   -1454.3279    427.21182    306.91731    362.69606    36302.736 
   76300    299.58328   -1455.1272     427.3507    312.61782   -52.727675    36302.736 
   76400    303.29015   -1447.0273    399.34582    309.29808   -709.57479    36302.736 
   76500     305.2283   -1459.2131    439.13777    345.57591    464.50233    36302.736 
   76600    303.47804   -1495.9501    450.20263    312.07266    218.16847    36302.736 
   76700    296.67785   -1501.6916    451.59112    277.29436    213.95082    36302.736 
   76800    300.57658   -1427.4516    427.67318    345.06005    140.62064    36302.736 
   76900    289.18896   -1405.1869    449.90186      338.603    -26.72744    36302.736 
   77000    300.88932   -1426.3138    458.24616    378.17011    390.78469    36302.736 
   77100    292.47922   -1425.9971    450.79376    333.40597    300.08818    36302.736 
   77200    307.04619    -1454.296    442.33168    361.82048    317.03402    36302.736 
   77300    293.67732   -1441.4073    448.63662    321.19921    63.975109    36302.736 
   77400    304.69663   -1445.6486     445.5343    363.15805    294.34693    36302.736 
   77500    295.81657   -1440.7834    428.43406    311.19194   -246.97348    36302.736 
   77600    299.28501   -1458.0334    432.25711    313.28347   -492.14058    36302.736 
   77700    293.36054      -1462.2    411.15652    261.50909   -341.93899    36302.736 
   77800    313.25788   -1463.8207    424.94356    362.69997   -62.049936    36302.736 
   77900    302.62025   -1467.6044    426.46196    312.83978    86.099965    36302.736 
   78000    297.26235   -1498.2367    419.58077    251.35401   -290.20064    36302.736 
   78100    302.47179   -1447.6578    452.29193    357.95222   -30.344204    36302.736 
   78200    295.00489   -1482.2577    424.12138    261.77333   -564.48243    36302.736 
   78300    298.44784   -1454.9707    435.73772    316.08112    244.29419    36302.736 
   78400    296.76911   -1453.2702    426.78291     301.3159   -407.89917    36302.736 
   78500    297.98592   -1455.2546     442.5209    320.51369    -354.3165    36302.736 
   78600    294.32116   -1439.7321    431.50644    308.62486    -308.8719    36302.736 
   78700    295.91147   -1404.4401    416.68221    336.20799   -531.46748    36302.736 
   78800    298.22344   -1424.2173    424.44115    334.53396   -149.91791    36302.736 
   78900    302.23698   -1462.8392    459.91373    349.34198   -59.670625    36302.736 
   79000    307.40998   -1386.8428    453.10986    441.67952   -336.35287    36302.736 
   79100    298.81825   -1411.7897    442.15437      367.336   -112.45871    36302.736 
   79200    295.11741    -1439.633    433.02134    313.80145   -98.123363    36302.736 
   79300    301.09157    -1452.507    440.17225    334.80785    175.53873    36302.736 
   79400    295.25625   -1423.1449    452.26483    350.15417    418.58877    36302.736 
   79500    301.49213   -1411.6185    453.92948    391.24588    471.54275    36302.736 
   79600    300.59488   -1466.3938    447.24692     325.7735    605.12615    36302.736 
   79700    307.04743   -1462.5893     434.9601    346.16115    435.70674    36302.736 
   79800    301.37834   -1433.8213    458.98746    373.59183   -66.127188    36302.736 
   79900    298.80808   -1458.2933    422.01028    300.64282    97.891025    36302.736 
   80000     296.7396   -1428.5673    435.09857    334.20234   -95.296141    36302.736 
   80100    300.08944   -1442.7334    456.09219    356.01774      335.572    36302.736 
   80200    298.45293   -1459.4735    466.82211    342.68547    252.41604    36302.736 
   80300    303.68567   -1470.6741    460.68805    348.76311   -8.4591934    36302.736 
   80400    300.71071   -1510.3731    446.81554    281.88103   -74.166637    36302.736 
   80500    294.72425   -1541.6141    446.37138    223.41127    470.93014    36302.736 
   80600    294.50592   -1527.3894    433.04408     223.3319   -425.26772    36302.736 
   80700    302.70054   -1456.3701    453.70956    351.68096   -28.842492    36302.736 
   80800    295.07261   -1466.9294    440.12564    293.40884   -172.88657    36302.736 
   80900    299.89918   -1474.3878     431.6626    299.08253   -331.64036    36302.736 
   81000     302.1655   -1470.5851    423.13736    304.49987   -277.44568    36302.736 
   81100    302.97182   -1492.2749    431.26916    294.54955   -136.81383    36302.736 
   81200    284.36224    -1469.039    468.28961    271.54293   -171.51549    36302.736 
   81300    288.01964   -1456.5156    441.21757    273.35828    -515.8775    36302.736 
   81400    316.20066   -1443.3122    446.79104    418.22254    421.88821    36302.736 
   81500    293.49757   -1441.4673    462.60248    334.30076     13.80275    36302.736 
   81600    298.27134   -1422.5918    459.40373    371.33629    -62.23383    36302.736 
   81700    311.14601   -1430.6067    447.54086    409.06237   -424.77429    36302.736 
   81800    306.93263   -1438.8539    455.52641    389.94922     64.29599    36302.736 
   81900    298.50365   -1469.7383    461.94284    327.76837   -28.387786    36302.736 
   82000    298.92721   -1426.3074    428.16381    339.31526   -128.58122    36302.736 
   82100    300.06172   -1441.3485     442.2206    343.40701    190.00185    36302.736 
   82200    299.86296   -1397.0317    477.36243     421.9764   -132.90197    36302.736 
   82300    297.80655   -1433.8398    454.63583    353.24085    202.43224    36302.736 
   82400    305.89559   -1454.1773    443.10626     357.5658    173.82614    36302.736 
   82500    303.33226   -1458.0719    431.66199    330.75806   -136.69389    36302.736 
   82600    303.00376   -1425.4031    478.71701    409.01207   -172.38234    36302.736 
   82700    304.98125   -1448.0651    455.55494    372.03571   -342.48067    36302.736 
   82800    295.58936   -1468.8989    456.53097    310.15676   -485.04765    36302.736 
   82900    294.19363   -1465.7163    431.31828    281.88191   -639.71637    36302.736 
   83000    298.88029   -1442.4949    455.24853    350.00257   -637.17851    36302.736 
   83100     296.8893   -1462.7578    475.57718    341.16031   -505.97597    36302.736 
   83200     298.6136   -1472.0752    413.92911    277.90962   -562.34098    36302.736 
   83300    293.16452   -1457.0855     487.8173    342.40733    215.84701    36302.736 
   83400    305.39328   -1452.5953    446.53888    360.33296    57.023992    36302.736 
   83500    291.06097    -1459.671    446.10563    288.69838    426.65204    36302.736 
   83600    311.26436   -1436.4042    466.19795     422.4515    596.01487    36302.736 
   83700    304.87623   -1465.4079    453.18091    351.84897     568.5203    36302.736 
   83800    303.23355   -1449.0926    446.25159    353.88528   -428.51084    36302.736 
   83900    293.94549   -1470.8608    447.21545    291.52431    35.695039    36302.736 
   84000    306.09784   -1461.5393    445.55405    353.55643    153.58862    36302.736 
   84100    299.88443   -1488.1803     435.7732    289.33455   -300.49649    36302.736 
   84200    294.17818   -1509.4297    435.48507    242.26616    410.00552    36302.736 
   84300    304.34672   -1502.9035     432.5589    291.36225    175.47993    36302.736 
   84400    299.63581   -1526.2776    432.67295    247.02466   -85.097186    36302.736 
   84500    292.08051   -1528.0287    424.91055     203.7073   -267.33959    36302.736 
   84600    306.38079   -1531.7617    434.61587    273.66191    408.26161    36302.736 
   84700    294.34085   -1528.7669    461.39815    249.56987    171.51563    36302.736 
   84800    298.15479   -1562.4929    436.56287    208.07296    537.29108    36302.736 
   84900    296.00065   -1499.3118    418.49121    243.54429    225.91355    36302.736 
   85000     300.8045   -1518.4024    437.32676    264.78258   -183.11299    36302.736 
   85100    300.01997   -1527.0416    429.12492    244.43143   -176.10101    36302.736 
   85200     299.0742      -1469.6    434.33949    302.85599   -103.20636    36302.736 
   85300    294.10283   -1512.6535     434.4235     237.6437   -175.20781    36302.736 
   85400    309.45621   -1483.8221    449.02659    349.77215    242.87068    36302.736 
   85500     299.3755   -1468.1744    428.71537    300.00561   -36.075638    36302.736 
   85600    306.64421   -1489.0412    429.55451    312.49958    124.58986    36302.736 
   85700    297.63037   -1486.1793    471.71036    317.18763   -475.91582    36302.736 
   85800    302.49327   -1436.3162    448.02295    365.12089   -1511.4534    36302.736 
   85900    306.61039   -1448.3988    418.07486    341.51104   -839.41048    36302.736 
   86000    296.46767   -1433.0657    451.56187     344.9506   -382.83659    36302.736 
   86100    309.81073   -1456.8704    477.24127    406.52481   -1094.3299    36302.736 
   86200    294.67874   -1477.3645    434.99788    276.08379     220.3067    36302.736 
   86300    298.59875   -1503.9296    437.74062    269.80031   -454.94475    36302.736 
   86400    296.24339   -1410.6891    435.53044    350.29229    299.10192    36302.736 
   86500    303.42908   -1444.1886    436.99959    350.41215    80.149493    36302.736 
   86600     295.8371    -1490.846    448.18514    280.97225    512.37046    36302.736 
   86700    305.94074   -1499.9852    444.98716    313.84071    290.58369    36302.736 
   86800     296.9103   -1444.5608    459.71382    343.58788   -133.68803    36302.736 
   86900    310.79705   -1498.0455    436.82158    329.34293   -258.75916    36302.736 
   87000    298.25323    -1508.492    439.86357    265.81497   -100.94322    36302.736 
   87100    298.42012   -1510.6347    447.09887    271.65419   -196.27128    36302.736 
   87200    297.97377   -1491.0043    438.53729    280.72604    172.80714    36302.736 
   87300      294.972   -1519.8382    439.00246    238.92682   -166.07461    36302.736 
   87400    296.00484   -1494.3874    429.85494    259.85124   -95.633004    36302.736 
   87500    300.30312   -1501.4263    434.14624    276.33492    292.57199    36302.736 
   87600    303.02623   -1520.2605    443.97509    279.51333    47.788423    36302.736 
   87700    298.36054   -1475.1689    435.42283    295.17743    200.06488    36302.736 
   87800    305.48041   -1465.0694    456.08445    357.79423   -445.18304    36302.736 
   87900    303.83003   -1479.2052    459.48846    339.67839   -528.69919    36302.736 
   88000    305.72701   -1503.6081    461.30102     325.5755   -481.57068    36302.736 
   88100    296.78742   -1489.0112    438.10949    276.98331   -273.67569    36302.736 
   88200    294.44276   -1476.1631    424.02255      265.254   -567.47106    36302.736 
   88300    301.66351   -1481.7205    449.59055    317.57173   -421.80491    36302.736 
   88400    307.83691   -1457.8587    445.05259    364.51655   -107.09648    36302.736 
   88500    305.47888   -1445.7867    448.70282     369.6885     194.1247    36302.736 
   88600    307.04591   -1513.3851    440.86449    301.26297    230.10252    36302.736 
   88700    301.29839   -1506.0441    417.42865    259.45254    529.23911    36302.736 
   88800    297.90168   -1476.4287    446.84392    303.28563    566.88863    36302.736 
   88900    302.96033   -1476.8344    448.81669    327.48619    664.12059    36302.736 
   89000    314.10116     -1501.41    442.18016    346.12028    323.57658    36302.736 
   89100    294.29907   -1486.1804    440.84575    271.41703   -110.10621    36302.736 
   89200    295.29843   -1460.1993    428.44823      289.472   -337.18901    36302.736 
   89300    308.18277   -1456.3876    428.60252    351.08505   -400.87875    36302.736 
   89400    302.09027   -1479.8456    452.64437    324.40978   -250.68687    36302.736 
   89500    300.01539   -1510.3033    428.41737     260.4417   -77.106215    36302.736 
   89600    308.64524   -1472.9931    444.57645    352.52265    -623.7832    36302.736 
   89700    299.66956   -1492.0666    436.90703    285.62078    -631.9921    36302.736 
   89800    296.19975   -1522.4991    432.25791    235.01451   -374.03257    36302.736 
   89900    311.01819   -1460.2166    442.17572    373.51542   -514.53335    36302.736 
   90000    309.60672   -1512.8073    453.27312    325.70691   -735.78445    36302.736 
   90100    306.17229    -1469.043    432.49983    333.33164   -286.34683    36302.736 
   90200    299.95744   -1499.8491    436.55233    278.77162   -597.53455    36302.736 
   90300    308.24133   -1494.5466    445.81787    330.40331    34.054204    36302.736 
   90400     292.6923   -1484.9978    430.95738    255.52232   -271.46846    36302.736 
   90500    303.70738    -1487.196    442.11977    313.77009    -290.8371    36302.736 
[...]
  984000    298.66198   -1589.7826    449.04935    195.53895   -882.60685    36302.736 
  984100    309.60885   -1597.6578    478.22993    265.82282   -91.563904    36302.736 
  984200    302.06153   -1588.4758    472.41907    235.42571    315.01915    36302.736 
  984300    295.57333   -1581.7196    455.09285    195.82621    290.05501    36302.736 
  984400    299.14573   -1558.5494    470.83154    250.71874   -130.71781    36302.736 
  984500    298.42611   -1550.4749    449.69453    234.43653   -220.20151    36302.736 
  984600    291.79804   -1525.6777    447.88007    227.76394   -260.89157    36302.736 
  984700    304.97479   -1559.6892     469.4549    274.28263    117.42923    36302.736 
  984800    295.91726   -1540.5701    439.96626      223.388    119.01446    36302.736 
  984900    299.33976    -1556.655    458.23779    240.88756   -280.37885    36302.736 
  985000    299.33025   -1534.6605    463.05708    267.65874   -119.30423    36302.736 
  985100    294.36997    -1549.172    480.35406      248.251   -85.491074    36302.736 
  985200    306.56837   -1543.9897    437.65797    265.31522   -310.89053    36302.736 
  985300    296.60484   -1588.3986      436.319    174.98853   -334.60511    36302.736 
  985400    298.42867   -1591.1387    429.32724    173.41683   -169.84722    36302.736 
  985500    298.78499    -1617.167    445.41814    165.07371   -112.45676    36302.736 
  985600    304.83725    -1558.998    449.94833    254.85184     297.3869    36302.736 
  985700    293.40888   -1553.0902    471.71952    231.39811   -620.75876    36302.736 
  985800     301.3712   -1572.0492    457.57778    233.92233   -137.09165    36302.736 
  985900    289.93894    -1608.353    465.94188    154.83248   -154.95828    36302.736 
  986000    300.36522   -1591.5168    471.27593    223.65202   -8.2002434    36302.736 
  986100    278.06209   -1594.6859    469.14118    118.55956   -8.6397235    36302.736 
  986200    299.27173   -1569.1339    461.07282    230.93928    267.18271    36302.736 
  986300    304.46397   -1526.9041    472.58966    307.91703    362.06004    36302.736 
  986400    306.62861    -1561.469    457.95928    268.40676   -270.88907    36302.736 
  986500    293.93505   -1528.2615    476.54037    263.40191   -82.536151    36302.736 
  986600    304.30755   -1538.3352     477.2523    300.44871    280.02606    36302.736 
  986700    310.27966   -1553.8555    478.08136    312.47782    118.01289    36302.736 
  986800    295.75866   -1536.7439    472.51873    259.05703   -60.620498    36302.736 
  986900    301.35168   -1495.6805     482.4826    335.10852    677.71675    36302.736 
  987000    294.17688   -1535.9803    454.40798    234.63268   -191.45654    36302.736 
  987100    303.90668    -1551.784     453.3109    261.26491    649.32298    36302.736 
  987200    312.05362   -1545.6406     458.6661    309.21454    621.46026    36302.736 
  987300     302.6229   -1528.7472    498.86547    324.11238    217.78137    36302.736 
  987400    298.81585   -1523.1708    475.66364    289.45351    535.51444    36302.736 
  987500    292.17292   -1523.1547    477.88628    261.97042    18.183277    36302.736 
  987600    299.03887   -1543.9271    463.00363    257.03501   -59.778186    36302.736 
  987700    299.24453    -1570.657    466.57703    234.79865   -362.34893    36302.736 
  987800    300.14799    -1587.648    448.81658    204.08943   -710.32227    36302.736 
  987900    297.07254   -1622.6548    454.18806    160.69401   -440.07254    36302.736 
  988000    298.41811   -1557.4599    460.29438     238.0156   -1008.4883    36302.736 
  988100    296.85751   -1549.3461    458.85701    237.70953   -1311.3462    36302.736 
  988200    297.74966   -1534.6844    439.63486     237.1408   -863.34735    36302.736 
  988300    294.46606   -1552.7801    499.17651    263.89522   -505.40482    36302.736 
  988400    290.53114   -1584.6747    469.10597    184.32453   -730.44274    36302.736 
  988500    272.47596   -1545.7044     465.7204    139.12678    193.53492    36302.736 
  988600    293.76436   -1564.7592     455.2397    204.83979   -183.78438    36302.736 
  988700    299.69149   -1539.7279    446.55625    247.70675    509.27683    36302.736 
  988800    300.54571   -1529.7463    471.31071    286.26484    170.39656    36302.736 
  988900    303.84851   -1554.1897    480.28557    285.57361    402.41083    36302.736 
  989000     298.4638    -1557.006    461.87261     240.2521    312.60682    36302.736 
  989100    303.69762   -1534.8156    502.86833    326.85539    17.965921    36302.736 
  989200     304.1218   -1574.2283     430.2229    216.69515    495.28595    36302.736 
  989300    297.84604   -1587.3125    455.33075    200.63975   -156.72948    36302.736 
  989400    303.34856    -1534.637       493.82    316.42384   -113.90045    36302.736 
  989500    302.49648   -1534.2371    468.04559    287.23705    -84.84417    36302.736 
  989600    297.92197   -1569.5809    479.71366    243.09398    214.33602    36302.736 
  989700    298.85465    -1567.599    479.97969    249.51496    -75.00699    36302.736 
  989800    301.00422   -1540.6437    450.08401    256.19216    54.806808    36302.736 
  989900    301.43719   -1578.3717    455.84319    226.16057   -326.67192    36302.736 
  990000    299.62988   -1557.7569      467.949     250.7949   -492.86329    36302.736 
  990100    299.39661   -1573.0023    454.06062    220.61735   -601.26694    36302.736 
  990200    292.82372   -1532.5674     469.4135    246.99681   -414.50393    36302.736 
  990300    295.20858   -1531.2135    485.62951    275.23699   -378.87868    36302.736 
  990400    298.43845    -1525.303    455.86353    265.83262    129.70547    36302.736 
  990500    295.95201   -1525.4891    464.76594    263.42407    93.536901    36302.736 
  990600    301.20528   -1538.5172    471.08241    280.21657   -257.59937    36302.736 
  990700    301.87714   -1537.2993    463.04637    276.40453   -180.22861    36302.736 
  990800    296.96411   -1531.0973    476.04646    273.62475   -218.71207    36302.736 
  990900    298.54217   -1530.2269    457.10494    262.61417   -266.82733    36302.736 
  991000     298.9559   -1551.4144    475.05173    261.22454    154.21282    36302.736 
  991100      290.677   -1549.6686    481.77148    232.64871    424.96331    36302.736 
  991200    296.24162   -1488.0274    475.34887    312.76448    25.321707    36302.736 
  991300    297.21922   -1538.1646    471.26896    262.92133     78.09816    36302.736 
  991400     302.3898   -1514.1843    461.32657    300.09342   -359.74299    36302.736 
  991500    303.30436   -1531.5898     475.9507    301.40405   -429.27304    36302.736 
  991600    297.09824   -1504.9881    477.14409    301.43172   -778.88397    36302.736 
  991700    301.57944   -1532.7237    459.41658     276.0183    164.37091    36302.736 
  991800    290.24901   -1531.8668    484.10828    250.87245   -138.44586    36302.736 
  991900    299.14194   -1510.1269    457.20237    285.49511   -244.42699    36302.736 
  992000    309.58226   -1514.5858     488.2269    358.77278    347.48549    36302.736 
  992100    295.52493   -1579.6915    483.40442    225.94933     312.7866    36302.736 
  992200    295.93608   -1535.9118    496.14199    284.30621    323.44744    36302.736 
  992300    296.68326   -1563.7105    473.61916    237.32765     630.4033    36302.736 
  992400    291.18394   -1540.5211    482.46428    244.75717    396.76881    36302.736 
  992500    299.54664   -1539.6632    480.47556    281.04267    521.20311    36302.736 
  992600    295.15504   -1571.2402    473.28098    222.62229   -246.39568    36302.736 
  992700    304.75201   -1585.3282     445.5839    223.77589   -410.77224    36302.736 
  992800    294.37608    -1570.137    447.53642    194.49563   -669.89711    36302.736 
  992900    298.09196   -1537.3183    465.69599    262.09954   -462.52296    36302.736 
  993000    299.87881   -1537.6212    469.58801    273.68335   -229.25682    36302.736 
  993100    304.06624   -1571.7434    484.66989    273.37839    -197.8911    36302.736 
  993200    295.75082   -1561.0841    458.91393    221.07688   -298.61079    36302.736 
  993300    293.58483   -1578.6933    472.13375    206.99646   -237.75983    36302.736 
  993400    294.73408   -1570.5323    479.91183    228.07759   -986.06894    36302.736 
  993500    294.19827   -1563.4912    465.60793    218.41737    -272.8747    36302.736 
  993600    311.54393   -1576.3979    472.85064    290.36131   -358.62025    36302.736 
  993700    293.37032   -1582.0371    478.09478    208.65394   -305.84796    36302.736 
  993800    305.61506   -1536.6193    471.67278    302.43513    74.163936    36302.736 
  993900    303.26693   -1528.9436    472.76891     300.7009    175.22002    36302.736 
  994000    290.84264   -1514.1696    476.45775    263.57512   -49.203363    36302.736 
  994100    296.91171    -1531.459    448.14466    245.12675   -180.05086    36302.736 
  994200    304.32344   -1538.4747    459.74246    282.87039    255.43481    36302.736 
  994300    300.52064   -1566.0129    446.72899    225.30427   -166.05332    36302.736 
  994400    298.69976   -1566.6836    459.61553    229.37322   -15.712683    36302.736 
  994500    300.80771   -1502.1306     494.6918    338.43385   -177.37985    36302.736 
  994600    294.58835   -1562.3117    456.09031    211.82456    331.43443    36302.736 
  994700    304.23182    -1530.264    478.52645    309.45523    658.28959    36302.736 
  994800    291.57292   -1553.4978    466.04741    217.10393    118.39949    36302.736 
  994900    297.30171   -1564.4432    484.84019    250.58312     306.1821    36302.736 
  995000    297.61279   -1556.6791    461.29011    236.18891   -114.91568    36302.736 
  995100    290.85796   -1529.6469    481.99978    253.70837    97.057929    36302.736 
  995200     301.7661   -1545.0208    461.35908    266.49889   -167.85654    36302.736 
  995300     310.4848     -1498.17    469.51551    360.51529   -231.25419    36302.736 
  995400    292.80685   -1506.8335    458.92163    262.16332   -444.23376    36302.736 
  995500    303.41909   -1499.8041    478.04348    335.79584   -196.82045    36302.736 
  995600     304.9727   -1505.4937    469.52191    328.53576    460.74991    36302.736 
  995700    293.02441   -1565.3702    474.77952    220.45794    231.87846    36302.736 
  995800    291.97488   -1545.9842    464.68593    225.05456    354.27271    36302.736 
  995900    306.48454   -1562.4153    465.67644    274.53307    561.37171    36302.736 
  996000    301.73226   -1515.9573    473.74726    307.79915    585.10657    36302.736 
  996100    290.95829   -1536.1468    482.04237    247.69998    192.16761    36302.736 
  996200    291.68404   -1541.6471     458.6956        222.1    285.62277    36302.736 
  996300    305.83522   -1557.7384    439.75239    250.38071    325.25015    36302.736 
  996400    306.45529   -1564.0858    482.00932    289.06451    977.55524    36302.736 
  996500     302.1709   -1581.2689    441.46716     212.1701    47.849015    36302.736 
  996600    294.57015   -1533.8972    480.83641    264.90376    63.880411    36302.736 
  996700    314.44732   -1525.3804    481.06381    362.58233    122.72292    36302.736 
  996800    296.36598   -1585.5858    461.63835    202.05196    375.16059    36302.736 
  996900    301.91611    -1522.479    478.06628     306.4191   -260.68939    36302.736 
  997000    294.37135   -1542.4253    450.72218    225.37197   -281.22052    36302.736 
  997100    299.12051   -1532.6662    471.23896    276.89656   -815.17424    36302.736 
  997200    298.79315    -1557.854    497.77687    276.78198   -732.46127    36302.736 
  997300    313.13822    -1521.474     462.8869    342.45464    260.14802    36302.736 
  997400    297.78855   -1489.9355    491.08782    333.51665   -400.01259    36302.736 
  997500    295.29888    -1514.493    455.23914    261.97118    -84.15792    36302.736 
  997600    299.86299   -1563.3061    437.85794     216.1976    297.26866    36302.736 
  997700    295.89469    -1566.753    482.64472    239.78252   -215.58477    36302.736 
  997800    306.58991   -1557.6452    466.50015    280.59826   -334.61102    36302.736 
  997900    297.28402   -1513.2784     470.5489    287.37742   -43.330317    36302.736 
  998000     293.1332   -1523.3319    443.76067    231.96413   -586.21807    36302.736 
  998100    304.19213    -1560.886    459.07441    259.20355   -310.14201    36302.736 
  998200    306.30158   -1535.2947    473.53885    308.69745     286.2254    36302.736 
  998300    297.54088   -1503.5997    494.90891    322.56539     556.2425    36302.736 
  998400    301.52006   -1505.1727    473.48309    317.37021    753.91443    36302.736 
  998500    295.52603   -1537.9548    471.70297    255.98952    643.41285    36302.736 
  998600     305.4026   -1539.5475    486.21732     313.1009     531.5646    36302.736 
  998700    293.43042   -1497.2901    452.55377    268.12885   -64.670698    36302.736 
  998800    295.28543   -1541.4828    460.11168    239.79374    222.45395    36302.736 
  998900    293.02278   -1550.4792    456.49709    217.05925    598.11575    36302.736 
  999000    293.31756   -1531.7876    463.86392    244.43651     438.2852    36302.736 
  999100    303.19284   -1502.7788     471.7171     325.4824   -184.23343    36302.736 
  999200      291.417    -1575.435    456.96796    185.38968    240.48196    36302.736 
  999300    297.08374   -1533.0623    482.16243    278.31102   -256.65338    36302.736 
  999400     310.8167   -1550.8313    468.17481    307.99827    285.73188    36302.736 
  999500     306.3317   -1555.0783     466.5045    282.01422   -43.261809    36302.736 
  999600    306.68349   -1517.0893    481.88467    336.95736    355.70333    36302.736 
  999700    294.52559   -1507.0532    439.51388    250.22581    27.632442    36302.736 
  999800    301.21717   -1526.8499    484.80336    305.65804    -87.92529    36302.736 
  999900    296.86442   -1511.9061    465.85531     282.1788   -426.47936    36302.736 
 1000000    294.83408   -1513.0922    474.57332    280.62658   -504.18959    36302.736 
 1000100     299.3589   -1562.0795     462.7451    240.05594   -192.77353    36302.736 
 1000200    293.00315   -1530.1568    447.34047     228.1371    207.36367    36302.736 
 1000300    293.45637     -1536.01     449.9184    226.88968   -28.204552    36302.736 
 1000400    300.94598   -1541.1733    442.90615    248.22412    -424.9055    36302.736 
 1000500    301.38159   -1558.2336    446.58665    236.79336   -513.40778    36302.736 
 1000600     296.6841   -1543.3902    433.09123    217.12376   -538.44029    36302.736 
 1000700    276.71653   -1580.7464    449.56088    106.89843   -508.12201    36302.736 
 1000800    288.27648   -1493.9033    457.73705    253.63917    198.69785    36302.736 
 1000900    292.38767   -1564.7188    453.41728    196.89817   -781.41216    36302.736 
 1001000    307.91095   -1563.0946    446.60641     261.1657   -380.42233    36302.736 
 1001100    294.99446   -1512.8155    450.90589    257.95336   -113.00433    36302.736 
 1001200    306.55756   -1476.4919    460.27863    355.38531    5.6758415    36302.736 
 1001300    292.80258   -1468.6157    479.26454      320.705   -505.58212    36302.736 
 1001400    293.26165   -1490.0419    434.85813    256.92625   -120.25001    36302.736 
 1001500    309.65627   -1469.8636    438.89329     354.4925   -379.18177    36302.736 
 1001600    287.17051   -1509.9246    458.83953    233.77207   -597.18883    36302.736 
 1001700    310.14787   -1516.5361    458.17681    329.30298    148.41041    36302.736 
 1001800    305.57266   -1501.2354    447.22188    313.17842   -505.76194    36302.736 
 1001900    298.21102   -1457.8213    451.67781    328.11097   -427.65498    36302.736 
 1002000    306.70976   -1477.8185    478.25973    372.72078    331.76364    36302.736 
 1002100    303.96172   -1518.6572    461.36481    302.69191    801.84167    36302.736 
 1002200    309.33737    -1492.491    487.42772    378.97265    422.83106    36302.736 
 1002300    294.68506   -1515.1529    449.53605    252.86183     13.17346    36302.736 
 1002400    298.44833   -1490.7794    460.22897    304.76583    198.75668    36302.736 
 1002500    303.11073   -1541.8505    434.75395    249.08023   -633.64109    36302.736 
 1002600    293.49671   -1469.9466    464.04285    307.25802   -1141.5307    36302.736 
 1002700    305.64461   -1494.7644    460.14505    332.89453   -966.18684    36302.736 
 1002800    298.09586   -1485.3895    445.79504    294.14475   -1457.6228    36302.736 
 1002900    301.46408   -1449.2314    481.66529    381.24327   -698.25171    36302.736 
 1003000    294.95676   -1450.5827    455.38874    324.50035   -667.05352    36302.736 
 1003100    309.05142   -1501.7758    453.73595    334.71681   -381.94158    36302.736 
 1003200    298.07033   -1479.3554     456.6321    310.90175   -474.96757    36302.736 
 1003300     298.5768   -1452.9393     446.5614    329.51314    29.409684    36302.736 
 1003400    300.77539   -1474.9005     464.2826    335.11008    81.215784    36302.736 
 1003500    312.59143   -1459.4158    472.81047    411.98998    472.95474    36302.736 
 1003600    294.89894   -1487.0089    454.38577    286.81247    356.90615    36302.736 
 1003700    291.58116   -1520.2829    468.95495    253.26327    68.262954    36302.736 
 1003800     300.7287   -1453.6834    468.40634    360.24207    776.02725    36302.736 
 1003900    296.03851   -1482.4174    468.99604     311.1129   -122.39708    36302.736 
 1004000    303.12278   -1506.7452     449.6297    299.11518    84.654335    36302.736 
 1004100    302.40669   -1518.6517    455.41866     289.7937    18.605928    36302.736 
 1004200    300.43473    -1524.093    472.27856    292.38938   -436.50113    36302.736 
 1004300    297.27881   -1527.8712    459.83136    262.04376    15.441326    36302.736 
 1004400    310.60985    -1518.432     427.8204    299.11776    61.360141    36302.736 
 1004500    293.31068   -1528.1093    455.40693     239.6271   -133.94968    36302.736 
 1004600    301.36023   -1525.3693    444.82304    267.79843    175.95612    36302.736 
 1004700     299.0115   -1508.5176    478.02213    307.34059    114.96185    36302.736 
 1004800    302.17649   -1528.4246    451.06625    274.63842    209.55052    36302.736 
 1004900    293.06865   -1492.0184    464.81183    284.03998    336.00984    36302.736 
 1005000    308.11182   -1559.9074     469.5506    288.19581    483.75448    36302.736 
 1005046    298.29218   -1522.7504    473.36627    285.23351    572.29058    36302.736 
Loop time of 594.501 on 32 procs for 1000000 steps with 1502 atoms

Performance: 145.332 ns/day, 0.165 hours/ns, 1682.082 timesteps/s
100.0% CPU use with 32 MPI tasks x no OpenMP threads

MPI task timing breakdown:
Section |  min time  |  avg time  |  max time  |%varavg| %total
---------------------------------------------------------------
Pair    | 244.1      | 277.38     | 330.97     | 125.5 | 46.66
Bond    | 1.3271     | 1.4717     | 1.6499     |   5.6 |  0.25
Neigh   | 38.922     | 38.993     | 39.055     |   0.7 |  6.56
Comm    | 212.16     | 265.63     | 298.65     | 127.9 | 44.68
Output  | 0.38484    | 0.40179    | 0.85312    |  12.8 |  0.07
Modify  | 7.4686     | 7.8375     | 8.1488     |   6.0 |  1.32
Other   |            | 2.785      |            |       |  0.47

Nlocal:        46.9375 ave          72 max          15 min
Histogram: 2 4 0 1 5 6 3 5 4 2
Nghost:        2037.31 ave        2218 max        1853 min
Histogram: 3 9 3 1 0 0 0 5 6 5
Neighs:        5490.91 ave       10104 max        1254 min
Histogram: 2 4 1 3 9 1 4 5 2 1

Total # of neighbors = 175709
Ave neighs/atom = 116.98336
Ave special neighs/atom = 1.9986684
Neighbor list builds = 49949
Dangerous builds = 0
The system volume is 36302.7358331274
Lattice vectors
33.1115708864641 0 0
0 33.1115708864641 0
0 0 33.1115708864641
Total wall time: 0:09:58
