LAMMPS data file
 1514 atoms
 1013 bonds
 522 angles
 27 dihedrals
 1 impropers
 6 atom types
 7 bond types
 3 angle types
 3 dihedral types
 1 improper types
 0 15 xlo xhi
 0 15 ylo yhi
 0 15 zlo zhi
 0 0 0 xy xz yz

# Atom types
#
# 1 C_2
# 2 C_3
# 3 O_3
# 4 O_2
# 5 H_
# 6 H__HB

# Bond Coeffs
#
# 1 C_2*C_3
# 2 C_2*O_2
# 3 C_3*C_3
# 4 C_3*H_
# 5 C_3*O_3
# 6 C_2*H_
# 7 O_3*H__HB

# Angle Coeffs
#
# 1 C_2
# 2 C_3
# 3 O_3

# Dihedral Coeffs
#
# 1 B1
# 2 A1
# 3 A2

# Inversion Coeffs
#
# 1 1

 Masses

 1 12.01
 2 12.01
 3 16
 4 16
 5 1.01
 6 1.01

 Atoms # full

1 1 1 0 11.6923280189513 14.2487441073342 3.30216183211345
2 1 2 0 11.390766615258 12.8435509788996 3.69724562272349
3 1 2 0 9.89084858792287 10.7828842665164 3.29857806478699
4 1 3 0 8.76479921612387 10.3094848713279 2.54774362570854
5 1 2 0 10.1837407159778 12.2525051002893 2.91802233133358
6 1 4 0 11.3471520302179 15.1075919102691 4.15099322773669
7 1 5 0 11.1476689942497 12.8021583832033 4.7644798377305
8 1 5 0 12.2805909234857 12.2249329489804 3.56692416038498
9 1 5 0 9.66887469285942 10.715041263928 4.36677362127941
10 1 5 0 10.7632125064817 10.163838364795 3.0730262411222
11 1 5 0 9.29378792351928 12.8518733799895 3.13115551149216
12 1 5 0 10.3668104041846 12.2988664934109 1.84234191388252
13 1 5 0 12.286955329434 14.6463384570325 2.12494017298715
14 1 6 0 8.1789349017816 9.07915525355557 2.57518259092941
15 2 6 0 7.69275347163901 5.65766659373417 6.69284510426223
16 2 3 0 8.65275347163901 5.65766659373417 6.69284510426223
17 2 6 0 8.89275347163901 4.72766659373417 6.69284510426223
18 3 6 0 9.79167047582567 10.0310877062753 7.50041042687371
19 3 3 0 10.7516704758257 10.0310877062753 7.50041042687371
20 3 6 0 10.9916704758257 9.10108770627529 7.50041042687371
21 4 6 0 9.64957683158107 11.8396478313394 1.11398581182584
22 4 3 0 10.6095768315811 11.8396478313394 1.11398581182584
23 4 6 0 10.8495768315811 10.9096478313394 1.11398581182584
24 5 6 0 13.5955657639727 4.55898365046829 4.22613954520784
25 5 3 0 14.5555657639727 4.55898365046829 4.22613954520784
26 5 6 0 14.7955657639727 3.62898365046829 4.22613954520784
27 6 6 0 0.930609931675717 5.22605908377096 13.6809187300969
28 6 3 0 1.89060993167572 5.22605908377096 13.6809187300969
29 6 6 0 2.13060993167572 4.29605908377096 13.6809187300969
30 7 6 0 5.12827345213853 4.5868704413902 6.64167011738755
31 7 3 0 6.08827345213853 4.5868704413902 6.64167011738755
32 7 6 0 6.32827345213853 3.6568704413902 6.64167011738755
33 8 6 0 1.27169509112835 4.70957311144099 2.69056501449086
34 8 3 0 2.23169509112835 4.70957311144099 2.69056501449086
35 8 6 0 2.47169509112835 3.77957311144099 2.69056501449086
36 9 6 0 9.59039124587551 9.74820963613689 1.94590375525877
37 9 3 0 10.5503912458755 9.74820963613689 1.94590375525877
38 9 6 0 10.7903912458755 8.81820963613689 1.94590375525877
39 10 6 0 12.7487683568336 10.330449393196 8.97094691055827
40 10 3 0 13.7087683568336 10.330449393196 8.97094691055827
41 10 6 0 13.9487683568336 9.40044939319603 8.97094691055827
42 11 6 0 0.68784298768267 5.9071382081043 4.81272006290965
43 11 3 0 1.64784298768267 5.9071382081043 4.81272006290965
44 11 6 0 1.88784298768267 4.9771382081043 4.81272006290965
45 12 6 0 1.02235015874729 10.0802399513219 1.94842189201154
46 12 3 0 1.98235015874729 10.0802399513219 1.94842189201154
47 12 6 0 2.22235015874729 9.15023995132186 1.94842189201154
48 13 6 0 7.93819009370171 1.30718168610707 7.64038508059457
49 13 3 0 8.89819009370171 1.30718168610707 7.64038508059457
50 13 6 0 9.13819009370171 0.377181686107069 7.64038508059457
51 14 6 0 9.7023152983468 11.9362978455052 14.9965365557
52 14 3 0 10.6623152983468 11.9362978455052 14.9965365557
53 14 6 0 10.9023152983468 11.0062978455052 14.9965365557
54 15 6 0 10.7209326540772 14.9533353552129 13.8016993703786
55 15 3 0 11.6809326540772 14.9533353552129 13.8016993703786
56 15 6 0 11.9209326540772 14.0233353552129 13.8016993703786
57 16 6 0 13.4131489279401 12.5903624731023 3.51293259649538
58 16 3 0 14.3731489279401 12.5903624731023 3.51293259649538
59 16 6 0 14.6131489279401 11.6603624731023 3.51293259649538
60 17 6 0 -0.458983756396919 10.8345408148039 10.9338870306965
61 17 3 0 0.501016243603081 10.8345408148039 10.9338870306965
62 17 6 0 0.74101624360308 9.90454081480391 10.9338870306965
63 18 6 0 1.89490283883177 14.168934934251 4.5646461553406
64 18 3 0 2.85490283883177 14.168934934251 4.5646461553406
65 18 6 0 3.09490283883177 13.238934934251 4.5646461553406
66 19 6 0 0.430409770198166 12.2234566548746 8.34757779724896
67 19 3 0 1.39040977019817 12.2234566548746 8.34757779724896
68 19 6 0 1.63040977019817 11.2934566548746 8.34757779724896
69 20 6 0 2.86057918958366 9.3672998195421 8.71466756332666
70 20 3 0 3.82057918958366 9.3672998195421 8.71466756332666
71 20 6 0 4.06057918958366 8.4372998195421 8.71466756332666
72 21 6 0 13.4928951929044 3.71034994645976 0.360814759042114
73 21 3 0 14.4528951929044 3.71034994645976 0.360814759042114
74 21 6 0 14.6928951929044 2.78034994645976 0.360814759042114
75 22 6 0 9.64600932944566 8.28733062761836 7.97635851195082
76 22 3 0 10.6060093294457 8.28733062761836 7.97635851195082
77 22 6 0 10.8460093294457 7.35733062761836 7.97635851195082
78 23 6 0 6.50586597315967 3.60132453422062 3.59904567827471
79 23 3 0 7.46586597315967 3.60132453422062 3.59904567827471
80 23 6 0 7.70586597315967 2.67132453422062 3.59904567827471
81 24 6 0 3.33519123421982 3.79614392220043 13.6407321773004
82 24 3 0 4.29519123421982 3.79614392220043 13.6407321773004
83 24 6 0 4.53519123421982 2.86614392220043 13.6407321773004
84 25 6 0 0.528752652900293 4.87200254498981 11.4465641963761
85 25 3 0 1.48875265290029 4.87200254498981 11.4465641963761
86 25 6 0 1.72875265290029 3.94200254498981 11.4465641963761
87 26 6 0 -0.240605328725651 0.866113801430911 7.54831326543353
88 26 3 0 0.719394671274349 0.866113801430911 7.54831326543353
89 26 6 0 0.959394671274349 -0.0638861985690892 7.54831326543353
90 27 6 0 7.5395558068715 6.41526025644503 0.00567442621104419
91 27 3 0 8.4995558068715 6.41526025644503 0.00567442621104419
92 27 6 0 8.7395558068715 5.48526025644504 0.00567442621104419
93 28 6 0 13.5019413758721 5.48078561708331 0.147176185855642
94 28 3 0 14.4619413758721 5.48078561708331 0.147176185855642
95 28 6 0 14.7019413758721 4.55078561708331 0.147176185855642
96 29 6 0 10.7815280479565 15.1305708689056 8.61675524152815
97 29 3 0 11.7415280479565 15.1305708689056 8.61675524152815
98 29 6 0 11.9815280479565 14.2005708689056 8.61675524152815
99 30 6 0 13.1992767895292 3.91990813933313 14.6727291704156
100 30 3 0 14.1592767895292 3.91990813933313 14.6727291704156
101 30 6 0 14.3992767895292 2.98990813933313 14.6727291704156
102 31 6 0 3.8658164713718 2.53634153906256 2.40093027125113
103 31 3 0 4.8258164713718 2.53634153906256 2.40093027125113
104 31 6 0 5.0658164713718 1.60634153906256 2.40093027125113
105 32 6 0 4.74335182967596 9.79371518403292 8.60515431384556
106 32 3 0 5.70335182967596 9.79371518403292 8.60515431384556
107 32 6 0 5.94335182967596 8.86371518403292 8.60515431384556
108 33 6 0 0.451267273603007 0.758818473378196 10.5889006471261
109 33 3 0 1.41126727360301 0.758818473378196 10.5889006471261
110 33 6 0 1.65126727360301 -0.171181526621804 10.5889006471261
111 34 6 0 11.4699240778293 2.32825887546875 4.45515876752324
112 34 3 0 12.4299240778293 2.32825887546875 4.45515876752324
113 34 6 0 12.6699240778293 1.39825887546875 4.45515876752324
114 35 6 0 6.59843074201606 14.5287121149618 12.2555088973604
115 35 3 0 7.55843074201606 14.5287121149618 12.2555088973604
116 35 6 0 7.79843074201606 13.5987121149618 12.2555088973604
117 36 6 0 10.0962155107129 2.27795836556703 10.2142725256272
118 36 3 0 11.0562155107129 2.27795836556703 10.2142725256272
119 36 6 0 11.2962155107129 1.34795836556703 10.2142725256272
120 37 6 0 5.30020872524008 13.1677094862703 9.61198590695858
121 37 3 0 6.26020872524008 13.1677094862703 9.61198590695858
122 37 6 0 6.50020872524008 12.2377094862703 9.61198590695858
123 38 6 0 6.13644227312878 13.2517807958089 14.8471529746894
124 38 3 0 7.09644227312878 13.2517807958089 14.8471529746894
125 38 6 0 7.33644227312878 12.3217807958089 14.8471529746894
126 39 6 0 8.90099500000477 8.64836782141589 1.75963293411769
127 39 3 0 9.86099500000477 8.64836782141589 1.75963293411769
128 39 6 0 10.1009950000048 7.71836782141589 1.75963293411769
129 40 6 0 3.23912160049193 13.1423416458443 7.3860849312041
130 40 3 0 4.19912160049193 13.1423416458443 7.3860849312041
131 40 6 0 4.43912160049193 12.2123416458443 7.3860849312041
132 41 6 0 9.23022696792148 10.7361783009861 14.5921182038728
133 41 3 0 10.1902269679215 10.7361783009861 14.5921182038728
134 41 6 0 10.4302269679215 9.80617830098607 14.5921182038728
135 42 6 0 0.267243127310649 3.71117631829344 3.7243547255639
136 42 3 0 1.22724312731065 3.71117631829344 3.7243547255639
137 42 6 0 1.46724312731065 2.78117631829344 3.7243547255639
138 43 6 0 0.450008014887571 14.9776253457554 14.5612416125368
139 43 3 0 1.41000801488757 14.9776253457554 14.5612416125368
140 43 6 0 1.65000801488757 14.0476253457554 14.5612416125368
141 44 6 0 11.0100464445725 3.39925345190801 10.9340780752245
142 44 3 0 11.9700464445725 3.39925345190801 10.9340780752245
143 44 6 0 12.2100464445725 2.46925345190801 10.9340780752245
144 45 6 0 11.8971851938125 4.70655898953788 13.7159168848302
145 45 3 0 12.8571851938125 4.70655898953788 13.7159168848302
146 45 6 0 13.0971851938125 3.77655898953788 13.7159168848302
147 46 6 0 9.70444643215276 11.5698634255119 0.884620399447158
148 46 3 0 10.6644464321528 11.5698634255119 0.884620399447158
149 46 6 0 10.9044464321528 10.6398634255119 0.884620399447158
150 47 6 0 6.92247607556172 13.694440341033 14.0186245541554
151 47 3 0 7.88247607556172 13.694440341033 14.0186245541554
152 47 6 0 8.12247607556172 12.764440341033 14.0186245541554
153 48 6 0 7.01761427379213 8.83991949650459 2.0855551189743
154 48 3 0 7.97761427379213 8.83991949650459 2.0855551189743
155 48 6 0 8.21761427379213 7.90991949650459 2.0855551189743
156 49 6 0 10.345420601517 1.68363533023745 8.16647717147134
157 49 3 0 11.305420601517 1.68363533023745 8.16647717147134
158 49 6 0 11.545420601517 0.753635330237448 8.16647717147134
159 50 6 0 7.12652128815651 0.986854019984603 8.05495911394246
160 50 3 0 8.08652128815651 0.986854019984603 8.05495911394246
161 50 6 0 8.32652128815651 0.0568540199846029 8.05495911394246
162 51 6 0 14.2151463583298 9.85382436815649 2.34945898409933
163 51 3 0 15.1751463583298 9.85382436815649 2.34945898409933
164 51 6 0 15.4151463583298 8.92382436815649 2.34945898409933
165 52 6 0 5.8693407468684 6.56170822953805 4.53591214609332
166 52 3 0 6.8293407468684 6.56170822953805 4.53591214609332
167 52 6 0 7.0693407468684 5.63170822953805 4.53591214609332
168 53 6 0 9.81391047287732 10.2964788283594 13.516545840539
169 53 3 0 10.7739104728773 10.2964788283594 13.516545840539
170 53 6 0 11.0139104728773 9.3664788283594 13.516545840539
171 54 6 0 0.698902681907639 8.76657193451189 0.203779209405184
172 54 3 0 1.65890268190764 8.76657193451189 0.203779209405184
173 54 6 0 1.89890268190764 7.83657193451188 0.203779209405184
174 55 6 0 6.35221932476386 1.07839281246066 3.5365574026946
175 55 3 0 7.31221932476386 1.07839281246066 3.5365574026946
176 55 6 0 7.55221932476386 0.148392812460661 3.5365574026946
177 56 6 0 1.96764558713883 7.58493122802116 0.820294967852533
178 56 3 0 2.92764558713883 7.58493122802116 0.820294967852533
179 56 6 0 3.16764558713883 6.65493122802116 0.820294967852533
180 57 6 0 11.1929322480876 1.83991325012408 0.949340779334307
181 57 3 0 12.1529322480876 1.83991325012408 0.949340779334307
182 57 6 0 12.3929322480876 0.909913250124082 0.949340779334307
183 58 6 0 5.72953143666498 2.99625571392477 14.6641389280558
184 58 3 0 6.68953143666498 2.99625571392477 14.6641389280558
185 58 6 0 6.92953143666498 2.06625571392477 14.6641389280558
186 59 6 0 12.5040916031878 4.33842056704685 9.72322371904738
187 59 3 0 13.4640916031878 4.33842056704685 9.72322371904738
188 59 6 0 13.7040916031878 3.40842056704685 9.72322371904738
189 60 6 0 3.01234048602171 3.36574146099389 0.687581029487774
190 60 3 0 3.97234048602171 3.36574146099389 0.687581029487774
191 60 6 0 4.21234048602171 2.43574146099389 0.687581029487774
192 61 6 0 10.0209795199055 9.41917060915381 10.8823371841572
193 61 3 0 10.9809795199055 9.41917060915381 10.8823371841572
194 61 6 0 11.2209795199055 8.48917060915381 10.8823371841572
195 62 6 0 0.505109046790749 9.30068965227343 11.0312419105321
196 62 3 0 1.46510904679075 9.30068965227343 11.0312419105321
197 62 6 0 1.70510904679075 8.37068965227343 11.0312419105321
198 63 6 0 13.0550253640115 4.39791384194046 14.2544984270353
199 63 3 0 14.0150253640115 4.39791384194046 14.2544984270353
200 63 6 0 14.2550253640115 3.46791384194046 14.2544984270353
201 64 6 0 5.27054598016664 14.5031639658287 9.99656680156477
202 64 3 0 6.23054598016664 14.5031639658287 9.99656680156477
203 64 6 0 6.47054598016664 13.5731639658287 9.99656680156477
204 65 6 0 7.62571344195865 10.1237219960336 2.11772978422232
205 65 3 0 8.58571344195865 10.1237219960336 2.11772978422232
206 65 6 0 8.82571344195865 9.19372199603356 2.11772978422232
207 66 6 0 13.6913014137838 4.26080927410163 12.9213100648485
208 66 3 0 14.6513014137838 4.26080927410163 12.9213100648485
209 66 6 0 14.8913014137838 3.33080927410163 12.9213100648485
210 67 6 0 12.9750047069695 4.35461572412401 2.3840081342496
211 67 3 0 13.9350047069695 4.35461572412401 2.3840081342496
212 67 6 0 14.1750047069695 3.42461572412401 2.3840081342496
213 68 6 0 -0.302261347677559 13.1909367946815 11.5303747658618
214 68 3 0 0.657738652322441 13.1909367946815 11.5303747658618
215 68 6 0 0.897738652322441 12.2609367946815 11.5303747658618
216 69 6 0 1.44072061448358 2.14663566596806 10.8149608795065
217 69 3 0 2.40072061448358 2.14663566596806 10.8149608795065
218 69 6 0 2.64072061448358 1.21663566596806 10.8149608795065
219 70 6 0 3.4255507313367 12.8689109899011 0.721855260198936
220 70 3 0 4.3855507313367 12.8689109899011 0.721855260198936
221 70 6 0 4.6255507313367 11.9389109899011 0.721855260198936
222 71 6 0 13.1514488851838 13.7147561883926 7.77114626951516
223 71 3 0 14.1114488851838 13.7147561883926 7.77114626951516
224 71 6 0 14.3514488851838 12.7847561883926 7.77114626951516
225 72 6 0 3.25060542250983 7.65617373440415 9.99202221399173
226 72 3 0 4.21060542250983 7.65617373440415 9.99202221399173
227 72 6 0 4.45060542250983 6.72617373440415 9.99202221399173
228 73 6 0 7.6806316435989 0.449381574699655 14.2135815764777
229 73 3 0 8.6406316435989 0.449381574699655 14.2135815764777
230 73 6 0 8.8806316435989 -0.480618425300345 14.2135815764777
231 74 6 0 9.95610223428346 2.79629386420362 1.52117273071781
232 74 3 0 10.9161022342835 2.79629386420362 1.52117273071781
233 74 6 0 11.1561022342835 1.86629386420362 1.52117273071781
234 75 6 0 4.96954313406721 11.6269810001273 2.45526975835674
235 75 3 0 5.92954313406721 11.6269810001273 2.45526975835674
236 75 6 0 6.16954313406721 10.6969810001273 2.45526975835674
237 76 6 0 11.0666279790178 1.34809883352369 1.05193933239207
238 76 3 0 12.0266279790178 1.34809883352369 1.05193933239207
239 76 6 0 12.2666279790178 0.418098833523691 1.05193933239207
240 77 6 0 6.20144488217309 2.29107060627081 6.50748054147698
241 77 3 0 7.16144488217309 2.29107060627081 6.50748054147698
242 77 6 0 7.40144488217309 1.3610706062708 6.50748054147698
243 78 6 0 12.1115759659745 8.96054080728442 8.66957244928926
244 78 3 0 13.0715759659745 8.96054080728442 8.66957244928926
245 78 6 0 13.3115759659745 8.03054080728442 8.66957244928926
246 79 6 0 13.6318776528072 13.0014820133243 4.44673903752118
247 79 3 0 14.5918776528072 13.0014820133243 4.44673903752118
248 79 6 0 14.8318776528072 12.0714820133243 4.44673903752118
249 80 6 0 4.06923270246014 2.5269303346891 1.85627937549725
250 80 3 0 5.02923270246014 2.5269303346891 1.85627937549725
251 80 6 0 5.26923270246014 1.5969303346891 1.85627937549725
252 81 6 0 3.502266204888 1.70987941482104 0.223227983806282
253 81 3 0 4.462266204888 1.70987941482104 0.223227983806282
254 81 6 0 4.702266204888 0.779879414821044 0.223227983806282
255 82 6 0 8.39338993697427 5.94307725591585 5.26069760788232
256 82 3 0 9.35338993697427 5.94307725591585 5.26069760788232
257 82 6 0 9.59338993697427 5.01307725591585 5.26069760788232
258 83 6 0 8.69844822373241 6.15668573457748 12.0675236452371
259 83 3 0 9.65844822373241 6.15668573457748 12.0675236452371
260 83 6 0 9.89844822373241 5.22668573457748 12.0675236452371
261 84 6 0 9.99645489544608 2.96793230966665 0.457040823530406
262 84 3 0 10.9564548954461 2.96793230966665 0.457040823530406
263 84 6 0 11.1964548954461 2.03793230966665 0.457040823530406
264 85 6 0 8.86936316426843 12.8851764047891 4.78940878529102
265 85 3 0 9.82936316426843 12.8851764047891 4.78940878529102
266 85 6 0 10.0693631642684 11.9551764047891 4.78940878529102
267 86 6 0 6.18243664663285 8.18120312568732 5.89718081639148
268 86 3 0 7.14243664663285 8.18120312568732 5.89718081639148
269 86 6 0 7.38243664663285 7.25120312568732 5.89718081639148
270 87 6 0 0.304425379000604 13.2276812211517 5.5381662317086
271 87 3 0 1.2644253790006 13.2276812211517 5.5381662317086
272 87 6 0 1.5044253790006 12.2976812211517 5.5381662317086
273 88 6 0 10.447244114913 4.33749545988627 10.303694534814
274 88 3 0 11.407244114913 4.33749545988627 10.303694534814
275 88 6 0 11.647244114913 3.40749545988627 10.303694534814
276 89 6 0 -0.493493462707847 7.36864248913713 13.4824901504908
277 89 3 0 0.466506537292153 7.36864248913713 13.4824901504908
278 89 6 0 0.706506537292153 6.43864248913713 13.4824901504908
279 90 6 0 0.262375501189381 3.85220021865331 8.14709337428212
280 90 3 0 1.22237550118938 3.85220021865331 8.14709337428212
281 90 6 0 1.46237550118938 2.92220021865331 8.14709337428212
282 91 6 0 3.94679297969677 12.0291999545321 14.3788313004188
283 91 3 0 4.90679297969677 12.0291999545321 14.3788313004188
284 91 6 0 5.14679297969677 11.0991999545321 14.3788313004188
285 92 6 0 10.0452109838091 8.48587779369205 6.88458158983849
286 92 3 0 11.0052109838091 8.48587779369205 6.88458158983849
287 92 6 0 11.2452109838091 7.55587779369205 6.88458158983849
288 93 6 0 -0.500057645402849 4.87932103261352 11.1415220831987
289 93 3 0 0.459942354597151 4.87932103261352 11.1415220831987
290 93 6 0 0.699942354597151 3.94932103261352 11.1415220831987
291 94 6 0 12.3791923436522 2.15170673135668 9.55677765305154
292 94 3 0 13.3391923436522 2.15170673135668 9.55677765305154
293 94 6 0 13.5791923436522 1.22170673135668 9.55677765305154
294 95 6 0 4.74648176154122 8.93110430025496 13.8842495286372
295 95 3 0 5.70648176154122 8.93110430025496 13.8842495286372
296 95 6 0 5.94648176154122 8.00110430025496 13.8842495286372
297 96 6 0 0.506383068133146 11.2518138978072 0.153180813649669
298 96 3 0 1.46638306813315 11.2518138978072 0.153180813649669
299 96 6 0 1.70638306813315 10.3218138978072 0.153180813649669
300 97 6 0 2.00673682076857 6.53301225666888 2.01892539742403
301 97 3 0 2.96673682076857 6.53301225666888 2.01892539742403
302 97 6 0 3.20673682076857 5.60301225666888 2.01892539742403
303 98 6 0 5.10868814002723 4.04734334018081 4.39105892088264
304 98 3 0 6.06868814002723 4.04734334018081 4.39105892088264
305 98 6 0 6.30868814002723 3.11734334018081 4.39105892088264
306 99 6 0 7.5206712428201 7.15267456410453 12.4243620224297
307 99 3 0 8.4806712428201 7.15267456410453 12.4243620224297
308 99 6 0 8.7206712428201 6.22267456410453 12.4243620224297
309 100 6 0 1.57657817864791 3.54475903365761 4.6263721876312
310 100 3 0 2.53657817864791 3.54475903365761 4.6263721876312
311 100 6 0 2.77657817864791 2.61475903365761 4.6263721876312
312 101 6 0 3.11229058119468 2.8466452592425 3.16835399251431
313 101 3 0 4.07229058119468 2.8466452592425 3.16835399251431
314 101 6 0 4.31229058119468 1.9166452592425 3.16835399251431
315 102 6 0 12.0620659324061 10.0240395001043 10.1469757268205
316 102 3 0 13.0220659324061 10.0240395001043 10.1469757268205
317 102 6 0 13.2620659324061 9.09403950010426 10.1469757268205
318 103 6 0 4.85536571868695 14.0469612173643 0.644329179776832
319 103 3 0 5.81536571868695 14.0469612173643 0.644329179776832
320 103 6 0 6.05536571868695 13.1169612173643 0.644329179776832
321 104 6 0 2.5251804948505 13.2469181324728 0.649292453890666
322 104 3 0 3.4851804948505 13.2469181324728 0.649292453890666
323 104 6 0 3.7251804948505 12.3169181324728 0.649292453890666
324 105 6 0 6.11021971955895 9.87311158137396 8.08733444544487
325 105 3 0 7.07021971955895 9.87311158137396 8.08733444544487
326 105 6 0 7.31021971955895 8.94311158137396 8.08733444544487
327 106 6 0 11.1941635287087 11.8654940933362 1.6867489926517
328 106 3 0 12.1541635287087 11.8654940933362 1.6867489926517
329 106 6 0 12.3941635287087 10.9354940933362 1.6867489926517
330 107 6 0 13.4345112035237 4.09823025850579 2.83006815472618
331 107 3 0 14.3945112035237 4.09823025850579 2.83006815472618
332 107 6 0 14.6345112035237 3.16823025850579 2.83006815472618
333 108 6 0 2.77604425253347 9.96397230233066 8.77755347639322
334 108 3 0 3.73604425253347 9.96397230233066 8.77755347639322
335 108 6 0 3.97604425253347 9.03397230233066 8.77755347639322
336 109 6 0 8.47909888179973 7.35650095314719 7.49201943282969
337 109 3 0 9.43909888179973 7.35650095314719 7.49201943282969
338 109 6 0 9.67909888179973 6.42650095314719 7.49201943282969
339 110 6 0 -0.714680337840691 2.88203762885183 14.0033141942695
340 110 3 0 0.245319662159309 2.88203762885183 14.0033141942695
341 110 6 0 0.485319662159309 1.95203762885183 14.0033141942695
342 111 6 0 2.69979452990927 5.86326515808701 9.37352255685255
343 111 3 0 3.65979452990927 5.86326515808701 9.37352255685255
344 111 6 0 3.89979452990927 4.93326515808702 9.37352255685255
345 112 6 0 11.7037715138588 13.9662003439758 6.70690746163018
346 112 3 0 12.6637715138588 13.9662003439758 6.70690746163018
347 112 6 0 12.9037715138588 13.0362003439758 6.70690746163018
348 113 6 0 6.27595885584131 5.6771938017942 1.94917435990646
349 113 3 0 7.23595885584131 5.6771938017942 1.94917435990646
350 113 6 0 7.47595885584131 4.7471938017942 1.94917435990646
351 114 6 0 6.42784571668133 7.68598574371077 7.99715955974534
352 114 3 0 7.38784571668133 7.68598574371077 7.99715955974534
353 114 6 0 7.62784571668133 6.75598574371077 7.99715955974534
354 115 6 0 0.402475324664265 1.5118790456932 10.3021272621118
355 115 3 0 1.36247532466426 1.5118790456932 10.3021272621118
356 115 6 0 1.60247532466426 0.581879045693204 10.3021272621118
357 116 6 0 2.55814728487283 2.56056299706921 0.997663806192577
358 116 3 0 3.51814728487283 2.56056299706921 0.997663806192577
359 116 6 0 3.75814728487283 1.63056299706921 0.997663806192577
360 117 6 0 2.44009218455292 11.3069848627225 2.44796309969388
361 117 3 0 3.40009218455292 11.3069848627225 2.44796309969388
362 117 6 0 3.64009218455292 10.3769848627225 2.44796309969388
363 118 6 0 3.02781306018122 9.01513680507429 13.9640292653348
364 118 3 0 3.98781306018122 9.01513680507429 13.9640292653348
365 118 6 0 4.22781306018122 8.08513680507429 13.9640292653348
366 119 6 0 0.459439416155219 14.7124812383577 14.9028127582278
367 119 3 0 1.41943941615522 14.7124812383577 14.9028127582278
368 119 6 0 1.65943941615522 13.7824812383577 14.9028127582278
369 120 6 0 4.925008032443 6.40726131893694 9.45486516575329
370 120 3 0 5.885008032443 6.40726131893694 9.45486516575329
371 120 6 0 6.125008032443 5.47726131893694 9.45486516575329
372 121 6 0 8.02206359731033 14.2192398062348 12.1627877012361
373 121 3 0 8.98206359731033 14.2192398062348 12.1627877012361
374 121 6 0 9.22206359731033 13.2892398062348 12.1627877012361
375 122 6 0 10.1248388439137 15.0470131884236 2.09492015303113
376 122 3 0 11.0848388439137 15.0470131884236 2.09492015303113
377 122 6 0 11.3248388439137 14.1170131884236 2.09492015303113
378 123 6 0 7.64957869352773 10.7361214158032 4.8450394521933
379 123 3 0 8.60957869352773 10.7361214158032 4.8450394521933
380 123 6 0 8.84957869352773 9.80612141580321 4.8450394521933
381 124 6 0 13.5905916527566 3.11391368316486 12.5529198849108
382 124 3 0 14.5505916527566 3.11391368316486 12.5529198849108
383 124 6 0 14.7905916527566 2.18391368316486 12.5529198849108
384 125 6 0 10.3761649857927 5.62802870100364 10.3778155299369
385 125 3 0 11.3361649857927 5.62802870100364 10.3778155299369
386 125 6 0 11.5761649857927 4.69802870100364 10.3778155299369
387 126 6 0 8.86839053870179 10.4284739347082 7.3512126726564
388 126 3 0 9.82839053870179 10.4284739347082 7.3512126726564
389 126 6 0 10.0683905387018 9.49847393470816 7.3512126726564
390 127 6 0 8.33440008966252 0.47741301631555 14.1568615066353
391 127 3 0 9.29440008966252 0.47741301631555 14.1568615066353
392 127 6 0 9.53440008966252 -0.45258698368445 14.1568615066353
393 128 6 0 8.20494037630968 5.45333121362142 7.26922993082553
394 128 3 0 9.16494037630968 5.45333121362142 7.26922993082553
395 128 6 0 9.40494037630968 4.52333121362142 7.26922993082553
396 129 6 0 7.20209998006001 3.4558043155726 3.39278193656355
397 129 3 0 8.16209998006001 3.4558043155726 3.39278193656355
398 129 6 0 8.40209998006001 2.5258043155726 3.39278193656355
399 130 6 0 13.0041327215452 13.192221408654 8.20391034591012
400 130 3 0 13.9641327215452 13.192221408654 8.20391034591012
401 130 6 0 14.2041327215452 12.262221408654 8.20391034591012
402 131 6 0 10.1375020800345 14.3678297432512 3.6622781236656
403 131 3 0 11.0975020800345 14.3678297432512 3.6622781236656
404 131 6 0 11.3375020800345 13.4378297432512 3.6622781236656
405 132 6 0 0.59372062722221 3.15883177489974 7.36873920075595
406 132 3 0 1.55372062722221 3.15883177489974 7.36873920075595
407 132 6 0 1.79372062722221 2.22883177489974 7.36873920075595
408 133 6 0 1.14083405278623 1.10211580217816 9.7052607871592
409 133 3 0 2.10083405278623 1.10211580217816 9.7052607871592
410 133 6 0 2.34083405278623 0.172115802178159 9.7052607871592
411 134 6 0 9.08381487985142 14.0216111535579 13.2800661202054
412 134 3 0 10.0438148798514 14.0216111535579 13.2800661202054
413 134 6 0 10.2838148798514 13.0916111535579 13.2800661202054
414 135 6 0 14.049852765603 9.32800798601471 9.21615980216302
415 135 3 0 15.009852765603 9.32800798601471 9.21615980216302
416 135 6 0 15.249852765603 8.39800798601471 9.21615980216302
417 136 6 0 6.11271999936551 3.80803317687474 7.79626036528498
418 136 3 0 7.07271999936551 3.80803317687474 7.79626036528498
419 136 6 0 7.31271999936551 2.87803317687474 7.79626036528498
420 137 6 0 13.1854844796192 3.46385615336709 5.62977220164612
421 137 3 0 14.1454844796192 3.46385615336709 5.62977220164612
422 137 6 0 14.3854844796192 2.53385615336709 5.62977220164612
423 138 6 0 12.5593657702859 5.42423714924604 3.79738388000987
424 138 3 0 13.5193657702859 5.42423714924604 3.79738388000987
425 138 6 0 13.7593657702859 4.49423714924604 3.79738388000987
426 139 6 0 2.60899436471052 6.39209732803516 2.93038041098043
427 139 3 0 3.56899436471052 6.39209732803516 2.93038041098043
428 139 6 0 3.80899436471053 5.46209732803516 2.93038041098043
429 140 6 0 10.9646153943334 10.5577880509105 8.64271547994576
430 140 3 0 11.9246153943334 10.5577880509105 8.64271547994576
431 140 6 0 12.1646153943334 9.62778805091046 8.64271547994576
432 141 6 0 10.7632593617029 7.25357560365461 9.45178165566176
433 141 3 0 11.7232593617029 7.25357560365461 9.45178165566176
434 141 6 0 11.9632593617029 6.32357560365461 9.45178165566176
435 142 6 0 8.54482056383975 12.6025772564486 8.36988564929925
436 142 3 0 9.50482056383975 12.6025772564486 8.36988564929925
437 142 6 0 9.74482056383975 11.6725772564486 8.36988564929925
438 143 6 0 0.0898959247581661 4.12361498846672 13.5362044384237
439 143 3 0 1.04989592475817 4.12361498846672 13.5362044384237
440 143 6 0 1.28989592475817 3.19361498846672 13.5362044384237
441 144 6 0 5.89346038919874 9.31438392534852 14.8565959744155
442 144 3 0 6.85346038919874 9.31438392534852 14.8565959744155
443 144 6 0 7.09346038919874 8.38438392534852 14.8565959744155
444 145 6 0 8.84384916440584 0.512250531874597 5.82491500885226
445 145 3 0 9.80384916440584 0.512250531874597 5.82491500885226
446 145 6 0 10.0438491644058 -0.417749468125403 5.82491500885226
447 146 6 0 9.10631828519516 4.5270733679086 9.11611664341763
448 146 3 0 10.0663182851952 4.5270733679086 9.11611664341763
449 146 6 0 10.3063182851952 3.5970733679086 9.11611664341763
450 147 6 0 13.6511148470175 2.12318090762943 9.784281126922
451 147 3 0 14.6111148470175 2.12318090762943 9.784281126922
452 147 6 0 14.8511148470175 1.19318090762943 9.784281126922
453 148 6 0 2.33012869415805 15.0130724352226 6.08205695869401
454 148 3 0 3.29012869415805 15.0130724352226 6.08205695869401
455 148 6 0 3.53012869415805 14.0830724352226 6.08205695869401
456 149 6 0 5.30048074593768 13.7526934609655 3.8263887015637
457 149 3 0 6.26048074593768 13.7526934609655 3.8263887015637
458 149 6 0 6.50048074593768 12.8226934609655 3.8263887015637
459 150 6 0 1.34300888210535 7.13608549948782 14.0891071327496
460 150 3 0 2.30300888210535 7.13608549948782 14.0891071327496
461 150 6 0 2.54300888210535 6.20608549948782 14.0891071327496
462 151 6 0 12.308589572059 8.18964120856486 6.54352954938076
463 151 3 0 13.268589572059 8.18964120856486 6.54352954938076
464 151 6 0 13.508589572059 7.25964120856486 6.54352954938076
465 152 6 0 2.8938665874023 12.8931084651873 0.325215433258563
466 152 3 0 3.8538665874023 12.8931084651873 0.325215433258563
467 152 6 0 4.0938665874023 11.9631084651873 0.325215433258563
468 153 6 0 7.49837315917946 8.57197674148716 14.833613333758
469 153 3 0 8.45837315917946 8.57197674148716 14.833613333758
470 153 6 0 8.69837315917946 7.64197674148716 14.833613333758
471 154 6 0 0.89806785617955 11.1764318593219 2.91375395609066
472 154 3 0 1.85806785617955 11.1764318593219 2.91375395609066
473 154 6 0 2.09806785617955 10.2464318593219 2.91375395609066
474 155 6 0 9.1829455287382 0.939163177218288 0.199101461330429
475 155 3 0 10.1429455287382 0.939163177218288 0.199101461330429