LAMMPS (29 Sep 2021 - Update 1)
# Test LAMMPS input file for single DeFDe

# Initialize simulation

clear

units real
atom_style full
boundary p p p
dielectric 1
special_bonds dreiding

bond_style harmonic
angle_style harmonic
dihedral_style harmonic
improper_style umbrella
pair_style hybrid/overlay hbond/dreiding/lj 4 9.0 11.0 90 lj/cut 8.50000

# Read data file
read_data frag5.dat
Reading data file ...
  triclinic box = (0.0000000 0.0000000 0.0000000) to (15.000000 15.000000 15.000000) with tilt (0.0000000 0.0000000 0.0000000)
  2 by 4 by 4 MPI processor grid
  reading atoms ...
  1514 atoms
  scanning bonds ...
  4 = max bonds/atom
  scanning angles ...
  6 = max angles/atom
  scanning dihedrals ...
  12 = max dihedrals/atom
  scanning impropers ...
  1 = max impropers/atom
  reading bonds ...
  1013 bonds
  reading angles ...
  522 angles
  reading dihedrals ...
  27 dihedrals
  reading impropers ...
  1 impropers
Finding 1-2 1-3 1-4 neighbors ...
  special bond factors lj:    0        0        1       
  special bond factors coul:  0        0        1       
     4 = max # of 1-2 neighbors
     6 = max # of 1-3 neighbors
    10 = max # of special neighbors
  special bonds CPU = 0.002 seconds
  read_data CPU = 0.017 seconds

# Dreiding potential information

bond_coeff 1 350 1.43
bond_coeff 2 700 1.22
bond_coeff 3 350 1.53
bond_coeff 4 350 1.09
bond_coeff 5 350 1.42
bond_coeff 6 350 0.99
bond_coeff 7 350 0.98

angle_coeff 1 50 120
angle_coeff 2 50 109.471
angle_coeff 3 50 104.51

dihedral_coeff 1 0.0833333333333333 -1 6
dihedral_coeff 2 0.111111111111111 -1 3
dihedral_coeff 3 0.333333333333333 -1 3

improper_coeff 1 40 0

pair_coeff 1 1 lj/cut 0.0951 3.8983
pair_coeff 1 2 lj/cut 0.0951 3.8983
pair_coeff 1 3 lj/cut 0.0953995283007206 3.64309650983885
pair_coeff 1 4 lj/cut 0.0953995283007206 3.64309650983885
pair_coeff 1 5 lj/cut 0.0380199947396104 3.52917391183829
pair_coeff 1 6 lj/cut 0.00308382878902186 3.52806914614779
pair_coeff 2 2 lj/cut 0.0951 3.8983
pair_coeff 2 3 lj/cut 0.0953995283007206 3.64309650983885
pair_coeff 2 4 lj/cut 0.0953995283007206 3.64309650983885
pair_coeff 2 5 lj/cut 0.0380199947396104 3.52917391183829
pair_coeff 2 6 lj/cut 0.00308382878902186 3.52806914614779
pair_coeff 3 3 lj/cut 0.0957 3.4046
pair_coeff 3 4 lj/cut 0.0957 3.4046
pair_coeff 3 5 lj/cut 0.0381397430510485 3.29813538230316
pair_coeff 3 6 lj/cut 0.0030935416596516 3.29710294046152
pair_coeff 4 4 lj/cut 0.0957 3.4046
pair_coeff 4 5 lj/cut 0.0381397430510485 3.29813538230316
pair_coeff 4 6 lj/cut 0.0030935416596516 3.29710294046152
pair_coeff 5 5 lj/cut 0.0152 3.195
pair_coeff 5 6 lj/cut 0.0012328828005938 3.19399984345648
pair_coeff 6 6 lj/cut 1e-04 3.193
pair_coeff 3 3 hbond/dreiding/lj 6 j 9.50 2.75 4 9.0 11.0 90
pair_coeff 3 4 hbond/dreiding/lj 6 i 9.50 2.75 4 9.0 11.0 90

neighbor 2 bin
neigh_modify every 2 one 10000

# Gemoetric relaxation
fix 1 all box/relax iso 1.0 vmax 0.001
minimize 1.0e-4 1.0e-6 10000 10000
WARNING: Using 'neigh_modify every 1 delay 0 check yes' setting during minimization (../min.cpp:188)
Neighbor list info ...
  update every 1 steps, delay 0 steps, check yes
  max neighbors/atom: 10000, page size: 100000
  master list distance cutoff = 13
  ghost atom cutoff = 13
  binsize = 6.5, bins = 3 3 3
  3 neighbor lists, perpetual/occasional/extra = 3 0 0
  (1) pair hbond/dreiding/lj, perpetual, skip from (3)
      attributes: full, newton on
      pair build: skip
      stencil: none
      bin: none
  (2) pair lj/cut, perpetual, half/full from (3)
      attributes: half, newton on
      pair build: halffull/newton
      stencil: none
      bin: none
  (3) neighbor class addition, perpetual
      attributes: full, newton on
      pair build: full/bin
      stencil: full/bin/3d
      bin: standard
Per MPI rank memory allocation (min/avg/max) = 15.41 | 15.78 | 16.33 Mbytes
Step Temp E_pair E_mol TotEng Press Volume 
       0            0 1.294941e+20    260.18861 1.294941e+20 1.0523503e+22         3375 
    5297            0   -970.21571    28.265857   -941.94986    81.619911     37926.35 
Loop time of 4.73722 on 32 procs for 5297 steps with 1514 atoms

100.0% CPU use with 32 MPI tasks x no OpenMP threads

Minimization stats:
  Stopping criterion = energy tolerance
  Energy initial, next-to-last, final = 
    1.29494103704757e+20  -941.352274762512  -941.445959038044
  Force two-norm initial, final = 4.5606251e+22 96.960991
  Force max component initial, final = 3.0703256e+22 59.725264
  Final line search alpha, max atom move = 1.1409632e-05 0.00068144332
  Iterations, force evaluations = 5297 5308

MPI task timing breakdown:
Section |  min time  |  avg time  |  max time  |%varavg| %total
---------------------------------------------------------------
Pair    | 1.6628     | 2.591      | 3.9926     |  31.3 | 54.69
Bond    | 0.0074637  | 0.011153   | 0.022849   |   2.7 |  0.24
Neigh   | 0.091046   | 0.091293   | 0.091465   |   0.0 |  1.93
Comm    | 0.29614    | 1.6993     | 2.6278     |  38.7 | 35.87
Output  | 0          | 0          | 0          |   0.0 |  0.00
Modify  | 0          | 0          | 0          |   0.0 |  0.00
Other   |            | 0.3445     |            |       |  7.27

Nlocal:        47.3125 ave          62 max          30 min
Histogram: 1 2 2 4 3 6 6 3 2 3
Nghost:        1911.31 ave        1951 max        1879 min
Histogram: 6 4 3 3 1 4 1 4 3 3
Neighs:        4784.75 ave        7076 max        2696 min
Histogram: 2 1 3 6 7 4 3 3 2 1

Total # of neighbors = 153112
Ave neighs/atom = 101.13078
Ave special neighs/atom = 2.0277411
Neighbor list builds = 91
Dangerous builds = 0

# MD simulation
velocity all create 300.0 12345 rot yes dist gaussian
timestep 1.0
fix 2 all nvt temp 300.0 300.0 1

# Compute interaction energy
group WAT molecule <> 2 501
1500 atoms in group WAT
group MOL molecule 1
14 atoms in group MOL

compute w WAT group/group MOL pair yes
fix 3 all ave/time 10 5 100 c_w file outa

# Outputs
thermo 100 # Output thermodynamic data every nth step
#dump mf1 all xyz 10000 mol_*.xyz

# Run
run 1000000
Neighbor list info ...
  update every 2 steps, delay 10 steps, check yes
  max neighbors/atom: 10000, page size: 100000
  master list distance cutoff = 13
  ghost atom cutoff = 13
  binsize = 6.5, bins = 6 6 6
  4 neighbor lists, perpetual/occasional/extra = 3 1 0
  (1) pair hbond/dreiding/lj, perpetual, skip from (4)
      attributes: full, newton on
      pair build: skip
      stencil: none
      bin: none
  (2) pair lj/cut, perpetual, half/full from (4)
      attributes: half, newton on
      pair build: halffull/newton
      stencil: none
      bin: none
  (3) compute group/group, occasional, copy from (2)
      attributes: half, newton on
      pair build: copy
      stencil: none
      bin: none
  (4) neighbor class addition, perpetual
      attributes: full, newton on
      pair build: full/bin
      stencil: full/bin/3d
      bin: standard
Per MPI rank memory allocation (min/avg/max) = 14.25 | 14.29 | 14.80 Mbytes
Step Temp E_pair E_mol TotEng Press Volume 
    5297          300   -970.21571    28.265857    411.03983    1712.3658     37926.35 
    5300    272.54468   -954.37777    469.59139    744.38075    865.31592     37926.35 
    5400    294.20262   -1102.4699    132.54504    356.91883    459.01742     37926.35 
    5500    304.23269   -1038.0918    198.36084    532.34801      889.395     37926.35 
    5600    303.27105   -1082.4484    199.17465    484.46824     866.1972     37926.35 
    5700    293.28942   -1067.7455    182.49434     437.4741    1004.2814     37926.35 
    5800    299.41889   -1058.5033    196.93502    488.80067    1312.9968     37926.35 
    5900    307.33278   -1048.9265    196.40822    533.54194     560.6367     37926.35 
    6000    302.40114   -1055.2042    192.02067    500.63525    602.80132     37926.35 
    6100     302.2365   -1064.4435     196.6261    495.25879    631.17491     37926.35 
    6200    301.31041   -1096.1097    205.20126    467.99117    794.33575     37926.35 
    6300     296.7416   -1080.8729    196.33796    453.75946    724.26235     37926.35 
    6400    304.40595   -1115.2267    214.47027    472.10396    834.13008     37926.35 
    6500    292.36007   -1032.9056    197.37832    483.00656    697.25645     37926.35 
    6600    298.80112   -1082.2607    198.22928    463.55142     727.4083     37926.35 
    6700    293.46149   -1082.5201    216.57935    457.56043    846.07164     37926.35 
    6800    296.56918   -1089.5282    204.09456    452.08312     577.9226     37926.35 
    6900    303.69499   -1052.8453    219.83287    536.64157    711.26805     37926.35 
    7000    309.86173   -1065.7835    209.36122    541.04342     867.7438     37926.35 
    7100    303.73107   -1054.6931    208.18857    523.31211    368.01523     37926.35 
    7200    299.65085   -1021.3576    212.83409    542.89149   -271.72036     37926.35 
    7300    293.18384    -1070.847    213.85499    465.25699     74.89772     37926.35 
    7400    302.21768   -1087.5323    213.88351    489.34253    145.23655     37926.35 
    7500    302.14522   -1108.9828    221.50329    475.18503   -171.19237     37926.35 
    7600     296.1792   -1109.9608    238.70549    464.50266   -69.788754     37926.35 
    7700    296.48038    -1081.406    221.02329    476.73356    101.75641     37926.35 
    7800    309.55675    -1127.533    228.25661    496.81388    190.25484     37926.35 
    7900    299.21238   -1123.1542    220.55784    446.84119   -129.16038     37926.35 
    8000    293.54073   -1134.0502    215.88355    405.69196    192.48787     37926.35 
    8100     299.9058   -1118.5211     229.7224    463.76618    434.50077     37926.35 
    8200    306.83512   -1117.5847    217.04939    483.28054    331.79407     37926.35 
    8300    299.58759   -1106.0484    216.42032    461.50161    620.04659     37926.35 
    8400    292.40652   -1141.4578    238.60823    415.89374   -27.283879     37926.35 
    8500    305.37016   -1107.3438    238.55199    508.41705    390.01984     37926.35 
    8600    300.18138   -1141.0681     229.8906    442.63026    484.27956     37926.35 
    8700    294.82003   -1159.8949    223.94433    393.67764    607.71193     37926.35 
    8800    290.15987    -1122.679    228.78921    414.72123    91.256797     37926.35 
    8900    312.95297   -1134.6577     230.5241    507.27352    174.00291     37926.35 
    9000    301.12438   -1126.4669    242.44856    474.04225    55.730369     37926.35 
    9100    291.97016   -1122.3061    241.54244     436.0117    486.47996     37926.35 
    9200    302.21653   -1195.0566    233.62542    401.55496    134.01096     37926.35 
    9300    305.13254   -1202.3572    235.97082    409.75087    191.28969     37926.35 
    9400    293.55778   -1166.3144    234.52019    392.14126    566.96211     37926.35 
    9500    301.27447   -1148.8561    252.12649    462.00791    349.45787     37926.35 
    9600    304.93236   -1159.5272    237.95744    453.66475    480.59583     37926.35 
    9700    301.24581   -1134.5431    261.74397    485.80911    572.61652     37926.35 
    9800    296.01817   -1111.7103    239.01134    462.33281    227.85936     37926.35 
    9900    314.39466   -1094.9899    244.97112    567.89029    619.66502     37926.35 
   10000    301.81744   -1100.0604    256.99032    518.11621    547.21949     37926.35 
   10100    297.04817   -1127.6692    251.34078    463.34862    233.62373     37926.35 
   10200    290.56297   -1104.9624    262.61176    468.07837    808.13126     37926.35 
   10300      305.648   -1130.9644    248.58746      496.085    261.99306     37926.35 
   10400    298.11694   -1128.7518    262.76396    478.50925     204.8333     37926.35 
   10500    300.03733   -1117.5279    252.13471    487.76482    145.74894     37926.35 
   10600    308.52635   -1062.3171    259.68756    588.81366     577.7687     37926.35 
   10700    308.51619   -1126.3423    244.70037     509.7555     128.5987     37926.35 
   10800    303.46145    -1101.131    248.30751    515.77726   -27.655194     37926.35 
   10900      290.349   -1130.6367    255.75774    434.58508    454.36021     37926.35 
   11000    302.23396   -1090.1474    252.19122    525.10858    272.83938     37926.35 
   11100    293.14818   -1107.3062    262.19143    476.97343    798.51942     37926.35 
   11200    304.01851   -1131.4784    250.57295    490.20752    655.44037     37926.35 
   11300     304.5564   -1095.8357     250.8997    528.60295    863.88401     37926.35 
   11400    313.09138    -1101.205    257.15001    567.97636    803.39536     37926.35 
   11500     298.0174   -1169.7181    251.96938     426.2995    718.85848     37926.35 
   11600    294.40753   -1136.9968    274.02867    464.79968    477.29742     37926.35 
   11700    311.29553   -1123.1673    258.66748    539.43234    520.23097     37926.35 
   11800    298.55187   -1112.0565    287.61267    522.01482    259.17733     37926.35 
   11900    298.58249   -1135.8815     266.4998    477.21507   -3.8477917     37926.35 
   12000    313.29546   -1172.1576    286.10295    526.89704     489.2223     37926.35 
   12100    299.43282   -1137.2259     275.9845    489.19031    313.87325     37926.35 
   12200     300.1588   -1130.8068    275.85707     498.7561     374.2414     37926.35 
   12300    295.98245   -1133.1257    269.92357    471.66855    3.2000623     37926.35 
   12400    295.84798    -1175.385    265.81314    424.69241     80.90961     37926.35 
   12500    296.02923   -1158.2779    275.75674    452.56046    192.02847     37926.35 
   12600    302.01236   -1154.1292    272.04425    479.98038    574.63861     37926.35 
   12700    293.49579   -1180.8341    276.74651    419.56829    451.32739     37926.35 
   12800    297.89827    -1199.188    272.01463    416.33759    302.26064     37926.35 
   12900    294.33685    -1141.328    283.97304    470.09407     545.8122     37926.35 
   13000    298.77345   -1166.0648    276.63294    458.02614    284.04601     37926.35 
   13100    295.89473   -1148.5833    274.72436    460.61613    261.00179     37926.35 
   13200    300.05369   -1147.0623    280.79887     486.9684    244.18469     37926.35 
   13300    301.28747    -1139.594    276.57867    495.78081    180.75423     37926.35 
   13400    295.28772   -1151.8643    296.44326    476.31643    727.97003     37926.35 
   13500    295.91481    -1169.436     286.2216    451.35122   -172.41586     37926.35 
   13600    300.14477   -1110.0782    298.20524    541.76961    219.29168     37926.35 
   13700    302.15104   -1109.5294    282.83287    535.99422    157.61042     37926.35 
   13800    302.07221   -1126.5513    284.86074    520.64468    183.59482     37926.35 
   13900    305.31109   -1163.6713    296.55136    509.82258    260.11667     37926.35 
   14000     295.3875   -1139.2648    283.56732    476.48998   -27.432837     37926.35 
   14100    305.39488   -1165.1813    299.49343    511.63256    14.731038     37926.35 
   14200    302.88679   -1162.6026    297.51986    500.92623    339.36486     37926.35 
   14300    302.34122   -1173.5147    282.60116      472.635    611.79152     37926.35 
   14400    300.66782   -1190.0183    277.47324    443.45645    451.09023     37926.35 
   14500    304.63442     -1171.03    293.25826    496.11901    769.21286     37926.35 
   14600    298.13118   -1165.7764    291.59271    470.37766    659.17069     37926.35 
   14700     309.3401   -1129.9803    289.89074    555.02365    272.13353     37926.35 
   14800    310.69485   -1174.3734    293.37113    520.22082     406.3428     37926.35 
   14900    290.65607   -1172.4996    291.97654    430.32582   -115.83234     37926.35 
   15000    303.44797   -1156.4286    303.18623     515.2975    142.58279     37926.35 
   15100    300.28507   -1162.9507     289.3022    480.62687    525.70947     37926.35 
   15200    305.59647   -1147.4183    293.77984    524.59111    -35.68183     37926.35 
   15300    305.89481   -1169.8321    297.99501    507.73792    141.36592     37926.35 
   15400    300.85494     -1166.25    309.79589     500.3913   -64.685242     37926.35 
   15500    288.86813   -1160.4957    294.56764    436.85727    649.30955     37926.35 
   15600    294.94953    -1182.584     292.4301    440.05832    625.52033     37926.35 
   15700    303.15716   -1153.5282    304.91665    518.61682    718.08254     37926.35 
   15800    308.65116   -1152.0266    303.91143    543.89097    743.90035     37926.35 
   15900     301.0739   -1131.3981     306.2814    532.71622    135.65421     37926.35 
   16000    303.95682   -1160.2392    305.20854    515.80417    86.593823     37926.35 
   16100    292.42452   -1218.4087    307.88971    408.30555   -147.62296     37926.35 
   16200    309.99273   -1175.7808    290.62842    512.90421     135.2101     37926.35 
   16300    290.19383   -1278.4387    301.24614    331.57164   -345.89496     37926.35 
   16400    306.89961   -1223.3798    304.95107    465.67801    -84.03084     37926.35 
   16500    289.78657   -1220.0773    299.15988    386.01001     -88.2309     37926.35 
   16600    293.99919   -1210.5753    311.38697    426.73787    23.477809     37926.35 
   16700     293.8801    -1192.649    290.76339    423.50357    318.49423     37926.35 
   16800    292.23886   -1205.5017    308.51314    420.99866    818.48268     37926.35 
   16900    295.21162   -1231.1197    310.52996    410.80448    13.100383     37926.35 
   17000    298.68443   -1180.5089    289.88678    456.43437    49.076912     37926.35 
   17100    295.81562   -1184.5348    317.93926    467.52275    220.55727     37926.35 
   17200    302.98979   -1176.3018    303.57388     493.7456    154.55204     37926.35 
   17300    311.32374   -1159.0949    309.14965    554.11416     455.3037     37926.35 
   17400    306.84277   -1204.4493    299.54606    478.94713    66.156313     37926.35 
   17500    304.64551   -1229.5134     312.7441    457.17145     314.7576     37926.35 
   17600    299.96355   -1192.6377    293.24954    453.43716    112.22774     37926.35 
   17700    297.51697   -1188.4414    323.32856    476.67847    277.91427     37926.35 
   17800    313.15733   -1246.7155    316.53851    482.15179   -7.3469616     37926.35 
   17900    290.93673   -1242.8476    290.74704    360.01409    326.38314     37926.35 
   18000    303.65917   -1209.3796    330.89955    491.01232    -147.5452     37926.35 
   18100    299.43906   -1216.1881    317.29722      451.569   -105.38247     37926.35 
   18200    295.24176   -1181.1914    301.37171    451.71046   -396.38946     37926.35 
   18300    312.37395   -1210.2518    333.76184    532.30585   -40.247681     37926.35 
   18400    292.18061   -1182.2315      308.954    444.44696   -88.065606     37926.35 
   18500    297.34274   -1164.7987    332.70198    508.90878   -201.56243     37926.35 
   18600    297.19451   -1181.2919    319.09512    478.14027   -93.926503     37926.35 
   18700    293.29601   -1202.3084    316.86152    437.30799    625.60122     37926.35 
   18800    299.48481   -1236.8969    319.77527    433.54457     358.0699     37926.35 
   18900    298.08736   -1240.4732    330.81549    434.70603    354.92145     37926.35 
   19000    298.84287   -1235.1112    316.70876    429.36866    590.90619     37926.35 
   19100    302.01311   -1201.0324     319.6553    480.69164    176.74925     37926.35 
   19200    294.04248   -1202.1404    334.24708    458.22822     305.8559     37926.35 
   19300    303.25789   -1189.1881    334.78365    513.27819    271.82269     37926.35 
   19400    287.79911   -1238.4373    323.46154    382.98837    126.52446     37926.35 
   19500    291.31886   -1225.7961    325.35689    413.39877     299.9473     37926.35 
   19600    295.23782   -1244.6698    324.55155    411.39415     138.9347     37926.35 
   19700    297.33751   -1216.5979    328.05199    452.43605    88.720068     37926.35 
   19800    294.99106   -1221.8517    310.13213    418.67999    268.27629     37926.35 
   19900    304.00963   -1208.9512      328.418    490.53978    185.31309     37926.35 
   20000    296.07173   -1240.4632    333.93022    428.74034   -445.73897     37926.35 
   20100    308.59995   -1234.5353    327.55212    484.79195   -423.64351     37926.35 
   20200    303.23251   -1228.4759    354.60949    493.70179   -93.152524     37926.35 
   20300     301.6513   -1178.3886     340.3248    522.37318    325.27884     37926.35 
   20400    303.95192   -1215.1766    333.94135    489.57744    606.93813     37926.35 
   20500    299.90796   -1178.2401    357.05733    531.39181    567.22388     37926.35 
   20600    298.89387   -1190.1081    330.15946    488.05246    697.99335     37926.35 
   20700    300.72126   -1202.5154    361.46277    515.18996    347.97796     37926.35 
   20800    301.60032   -1214.3624     355.0988    500.94349    235.41055     37926.35 
   20900    296.77375   -1189.2859     352.9004    502.05389    466.65096     37926.35 
   21000     306.2771   -1223.4528    340.52917    498.37559    227.71812     37926.35 
   21100     297.5653   -1178.0124    353.21949    517.21636    322.96911     37926.35 
   21200    305.91519   -1267.9367    343.56691    455.29714    664.09385     37926.35 
   21300    305.35372   -1252.0233    324.43701    449.54851    829.23372     37926.35 
   21400      307.442   -1246.2512    341.32313    481.62483    637.43442     37926.35 
   21500    304.76296   -1220.2523    347.04727    501.26544    122.66778     37926.35 
   21600    310.63939   -1229.4891    336.70077    508.18466    298.24656     37926.35 
   21700    306.69256   -1234.9161    349.36653    497.62332     236.8762     37926.35 
   21800    303.78767   -1195.2686     349.5575    524.36089    649.60947     37926.35 
   21900     296.2047   -1237.9486    343.73081     441.6552   -46.628657     37926.35 
   22000    302.10614   -1247.9911    343.17639     457.6736    415.89387     37926.35 
   22100    308.38835   -1231.6966    342.85245    501.97665     447.2343     37926.35 
   22200     304.8873   -1226.2396    352.22492    501.01654    363.55168     37926.35 
   22300    307.15205   -1255.9871    317.78546    447.04352    55.561152     37926.35 
   22400    315.19264   -1237.6422    350.98463     534.8504    84.557925     37926.35 
   22500    296.54183   -1236.4537    342.38669     443.3264    54.628156     37926.35 
   22600    292.02983   -1241.0605    355.37988    431.36389   -602.09498     37926.35 
   22700    297.71506   -1243.6647    344.92347    443.94338   -669.62349     37926.35 
   22800    307.27298   -1244.0413    349.43598    491.18529   -300.08411     37926.35 
   22900    298.40679   -1246.3207    335.20998    434.69369   -372.34822     37926.35 
   23000    298.61208   -1210.7512    346.70553    482.68451   -172.15651     37926.35 
   23100    296.57015   -1245.4517    333.88354    425.95299   -441.02823     37926.35 
   23200    293.76398   -1223.1326    351.03029    452.76314   -631.38163     37926.35 
   23300    307.26011   -1215.1177    343.05516    513.66997   -71.616214     37926.35 
   23400    310.82515   -1234.0192    344.35596    512.14749    59.598507     37926.35 
   23500    299.14176   -1259.6005    354.41157    443.93016   -428.02458     37926.35 
   23600     309.9716   -1243.6854    351.51588    505.79179    341.53484     37926.35 
   23700    299.61193   -1230.5163    350.84004    471.56327    131.31824     37926.35 
   23800    292.63493   -1248.1489    356.35888    427.98346    569.19979     37926.35 
   23900    301.97897   -1241.3096    347.60248    468.20764    205.09824     37926.35 
   24000     313.4813   -1255.1101    345.06117    503.74092   -88.549205     37926.35 
   24100    298.62412   -1236.9502    353.92164    463.75593    51.286354     37926.35 
   24200    304.43956   -1263.9909    356.58621    465.60729    417.98281     37926.35 
   24300    295.00215    -1288.416    359.93068    401.96418   -279.58986     37926.35 
   24400    300.55821   -1312.1604    332.71182    376.05861    528.30867     37926.35 
   24500    299.81608   -1237.7934    369.95776    484.32461    846.14644     37926.35 
   24600    297.72508   -1250.3401    357.61429    450.00407    448.91432     37926.35 
   24700    300.74701   -1252.4187    361.87651    465.81644    401.65519     37926.35 
   24800    305.47723   -1258.2633    350.02526    469.45374    366.28308     37926.35 
   24900    294.64586   -1289.7358    354.48063    393.58749    142.31467     37926.35 
   25000    305.05427   -1260.9788    335.67357      450.479    331.05715     37926.35 
   25100    300.78603    -1248.236    343.75314    452.05183    553.93411     37926.35 
   25200    290.96419   -1258.1399    354.53419    408.63276    318.19328     37926.35 
   25300    300.64495   -1240.0872    352.50923     468.3204    347.66093     37926.35 
   25400    307.43851   -1231.6547    356.69397    511.57638    333.08255     37926.35 
   25500    301.52832   -1211.2133     350.6141    499.28314    360.31062     37926.35 
   25600    301.30527   -1246.4961    359.06877     471.4491    375.76908     37926.35 
   25700    287.40771    -1200.296    357.22113    453.12399     952.5825     37926.35 
   25800     296.5655   -1204.6671    381.33803    514.17118    583.24645     37926.35 
   25900    298.75768   -1239.6412    354.13245    461.87817    224.92635     37926.35 
   26000    306.92954   -1240.3416    349.25058    493.15063    713.66678     37926.35 
   26100    308.14289   -1247.7687    357.76756    499.71268    735.07056     37926.35 
   26200    291.48741   -1260.3046    355.27442    409.56799    65.019761     37926.35 
   26300    299.51021    -1256.916    344.09682    437.96155    231.68719     37926.35 
   26400    309.74608   -1258.6229    347.80592    486.12716     579.2354     37926.35 
   26500    297.71676    -1273.755    340.39499    409.33238    245.45302     37926.35 
   26600    304.97529   -1298.9802    327.69798    404.14581    239.00004     37926.35 
   26700    290.51328   -1267.8839    339.71342    382.03439   -124.61824     37926.35 
   26800    296.43881   -1266.0618    358.44999    429.31701    122.19381     37926.35 
   26900    313.99746   -1270.9163    348.87363     494.0751    253.37755     37926.35 
   27000     304.1637   -1266.1256    355.48527    461.12744    578.65374     37926.35 
   27100    295.04594   -1282.2066    372.53464    420.97509    739.52817     37926.35 
   27200    304.93742   -1231.9797    354.52254    497.80005    806.47211     37926.35 
   27300     302.9669   -1273.8944    357.62625    450.10212    340.74427     37926.35 
   27400    299.55317   -1266.1051    339.54232    424.41174    790.36665     37926.35 
   27500    295.58118    -1243.379     333.8703    423.55225   -249.34627     37926.35 
   27600    297.67568   -1205.8561    374.74583    511.39683   -430.77506     37926.35 
   27700    301.08856   -1248.7017    337.20684    446.40416    -328.7564     37926.35 
   27800     296.9291   -1209.8895    370.72588     499.9764    391.78364     37926.35 
   27900    300.46579   -1250.3925    346.14841    450.84629   -141.70014     37926.35 
   28000    297.71636   -1210.7378    359.33128    491.28398    256.97267     37926.35 
   28100    289.11739   -1268.8474    377.31406    412.37618    267.90012     37926.35 
   28200    295.83815   -1271.0368    364.49685    427.67996    -104.7362     37926.35 
   28300    294.99289   -1225.9394    346.49131    450.95967    432.53718     37926.35 
   28400    291.92235   -1248.6197    362.19021     430.1303    70.194901     37926.35 
   28500    291.79382   -1273.8008    340.78258    382.96184      404.192     37926.35 
   28600    299.19878   -1305.5193    355.99181    399.84866    644.15993     37926.35 
   28700    306.26396   -1263.1969    362.78806    480.83112    320.67012     37926.35 
   28800    291.30495   -1270.6717    376.00331    419.10696    359.53041     37926.35 
   28900    301.97615   -1242.6967      355.266     474.4714    1063.2798     37926.35 
   29000    293.89841   -1238.4569    354.55569    441.57058     218.1995     37926.35 
   29100    296.05993    -1229.229    353.44725    459.43831    444.43917     37926.35 
   29200    308.79783    -1242.286    361.98022    512.36184    365.25275     37926.35 
   29300    305.90454   -1238.3352    340.60942    481.89317    119.16709     37926.35 
   29400    304.86007   -1267.3702    342.42022    449.95841   -19.535596     37926.35 
   29500    292.03781   -1218.4026    338.85178    437.52967    167.11818     37926.35 
   29600    306.22578   -1221.7232    360.50048    519.84503   -41.136512     37926.35 
   29700    304.83106   -1206.8188    364.40744    532.36624    51.177881     37926.35 
   29800    296.76227   -1222.5702    372.80298    488.62038    199.17411     37926.35 
   29900       294.44   -1261.8563    376.14282    442.20082   -184.00448     37926.35 
   30000    295.14662   -1208.9529    366.60906     488.7573    390.63268     37926.35 
   30100    303.79033   -1231.9378    375.09457    513.24068    854.82389     37926.35 
   30200     294.7009   -1236.1217    353.85876    446.82802    516.52202     37926.35 
   30300    303.04715   -1275.7217    352.46998    443.48048    277.79258     37926.35 
   30400    295.55004   -1296.7053     346.9384    383.15366    307.48492     37926.35 
   30500    289.10056    -1303.758    368.74449    368.82002     587.7623     37926.35 
   30600     303.7932   -1290.4124    377.19248    456.87701    951.37961     37926.35 
   30700    297.83255   -1243.8882    354.07419    453.40054    888.94561     37926.35 
   30800     299.4656   -1192.7487    355.53966    513.37045    875.40284     37926.35 
   30900    296.42419   -1222.4951    359.13194    473.49972     524.6926     37926.35 
   31000    293.78544   -1213.4696    383.04204    494.53468     657.7071     37926.35 
   31100    308.78015   -1276.5931    376.38931    492.38411    314.09464     37926.35 
   31200    300.83918   -1252.4124    363.58502    467.94699    195.02274     37926.35 
   31300    305.47208   -1232.2496    397.30986    542.72885    283.80271     37926.35 
   31400      306.338   -1243.0313    365.20152    503.74409    457.20162     37926.35 
   31500    307.24114   -1280.0631    371.40172    476.98561    222.80114     37926.35 
   31600    304.10503   -1241.9097    375.28926    504.88272   -57.349401     37926.35 
   31700     306.8561   -1258.0469    372.79817    498.66176   -450.76193     37926.35 
   31800    306.98051   -1170.3571    380.82136    594.93584     233.4127     37926.35 
   31900    292.78565   -1266.9589     359.3972    412.89153     218.0819     37926.35 
   32000    290.11675   -1289.5769    377.43905    396.27873    118.41783     37926.35 
   32100    308.78097   -1226.1392    381.89673    548.34908    288.74302     37926.35 
   32200    289.72375   -1240.1074    372.89323    439.42998    113.84051     37926.35 
   32300    301.10086   -1265.3164    377.63663    470.27478    95.588913     37926.35 
   32400      309.117   -1250.4874    374.06762    517.68723   -10.574057     37926.35 
   32500    295.00173   -1237.5718    373.66449    466.54039    14.767138     37926.35 
   32600    295.76762   -1304.2126    366.20803    395.89725    -289.3802     37926.35 
   32700    292.38564    -1271.961    384.84789    431.53612   -216.49135     37926.35 
   32800    298.94819   -1286.1633    364.93703    427.01981   -607.98156     37926.35 
   32900     307.1245   -1293.8219    376.95999    468.25905   -251.86634     37926.35 
   33000    304.76749   -1275.9716    369.31379    467.83306   -13.329859     37926.35 
   33100    305.27541   -1283.3911    369.74702    463.13751   -468.36175     37926.35 
   33200    308.68225   -1295.8343    367.20401    463.51604   0.75405948     37926.35 
   33300    304.48569   -1271.1166    378.37518    480.47851    9.5539664     37926.35 
   33400    296.11313   -1287.6431    369.14569    416.96264   -213.76026     37926.35 
   33500    302.29028   -1310.6497    361.97983    414.64889    -332.5529     37926.35 
   33600    302.90347   -1313.0573    363.17088    416.19782   -25.195911     37926.35 
   33700    300.34347   -1314.9638    371.64472    411.21963   -221.69752     37926.35 
   33800    310.77472   -1279.2839    384.78956    507.08892    272.36654     37926.35 
   33900    299.72517   -1324.5837    380.21234    407.37883    516.32672     37926.35 
   34000    295.24515   -1315.7628    373.59948    389.38212    56.982582     37926.35 
   34100    309.66799   -1271.1445    393.62147    519.06894   -431.20392     37926.35 
   34200    289.55944   -1232.8237    388.68041    461.75986   -182.06063     37926.35 
   34300    299.71203   -1289.3474    374.13487    436.47843   -460.13418     37926.35 
   34400    299.08172   -1293.9411    404.52871    459.43591    309.64985     37926.35 
   34500    299.84756   -1276.7168    380.31628    455.90167   -298.06165     37926.35 
   34600     294.3512   -1272.7753    391.45875    446.19722    129.22819     37926.35 
   34700    290.88531    -1283.803     374.3709    402.45065    32.840323     37926.35 
   34800    307.88679   -1282.3325    397.63697    503.86327   -4.0595692     37926.35 
   34900     291.0305   -1317.6517     401.4073    396.29317    77.930327     37926.35 
   35000    301.03199   -1285.1844    402.40339    474.86285    101.63958     37926.35 
   35100    300.97067   -1288.9512    401.30926    469.72548    430.18459     37926.35 
   35200    308.34117   -1311.4591     367.3633    446.51222    463.81052     37926.35 
   35300    298.04772   -1294.3901     373.1425    422.93739    631.16393     37926.35 
   35400     306.1689   -1345.6836     385.0611    420.18871    182.36485     37926.35 
   35500    294.04983   -1342.2328    376.47888    360.40071     531.0611     37926.35 
   35600    293.67487   -1321.3301    387.87071    391.00423    193.31009     37926.35 
   35700    299.55298   -1273.9934    365.88368    442.86395    138.57371     37926.35 
   35800     295.0001   -1331.6462     365.7054    364.49953    572.30726     37926.35 
   35900    292.69667   -1309.3791    386.96251    397.63531    435.78536     37926.35 
   36000    297.32865   -1343.3496    376.83366    374.42603    419.87326     37926.35 
   36100    294.40649   -1283.4253    387.91728    432.25512    427.46625     37926.35 
   36200    300.75566   -1313.9564    387.82868    430.26997    219.43159     37926.35 
   36300    301.72601   -1308.4753    414.01826     466.3169    44.536362     37926.35 
   36400    295.74273   -1297.3056    391.99168    428.47558   -328.62526     37926.35 
   36500    304.52969   -1308.0919    419.52713    484.85367   -802.17062     37926.35 
   36600    306.80287   -1316.1077    381.44881    449.01151   -113.14478     37926.35 
   36700    301.62589   -1326.8761    392.08403    425.53038     246.8043     37926.35 
   36800     288.8113   -1335.0622    412.28874    379.75562   -85.100808     37926.35 
   36900    295.31779   -1365.7541    416.52584    382.64479    353.89409     37926.35 
   37000    294.20267   -1378.8967    414.71332    362.66056   -411.31693     37926.35 
   37100    297.34416   -1404.0448    402.61253    339.57965   -245.08167     37926.35 
   37200    291.02403   -1364.9438    394.93281    342.49733    398.31247     37926.35 
   37300    303.93911   -1332.9584    396.62071    434.41725    409.97206     37926.35 
   37400    304.06076   -1337.2077    405.38477    439.48062    409.70003     37926.35 
   37500    302.27202   -1327.8685    416.39695    451.76483    298.24497     37926.35 
   37600     303.4489   -1301.1532    415.45723    482.84813   -86.169911     37926.35 
   37700    297.47021   -1240.0622    425.26145    526.77964   -105.76283     37926.35 
   37800    299.44356   -1288.0609    416.81473    479.23404    514.23764     37926.35 
   37900    304.68906   -1294.3504    403.10407    482.89082    127.94042     37926.35 
   38000     302.9082   -1274.5653    395.82415    487.36447    127.60425     37926.35 
   38100    288.74991   -1309.6487    405.26855    397.87202   -195.94379     37926.35 
   38200    301.62742   -1335.0589    415.74896    441.01934    278.46513     37926.35 
   38300    308.67553      -1307.3    419.90647    504.72255    95.963014     37926.35 
   38400    299.89048   -1344.5003    420.76806    428.76353   -56.463189     37926.35 
   38500    297.62328   -1342.2232     423.5443    423.59181    88.348106     37926.35 
   38600    299.29342   -1380.3308    412.40167    381.87386    272.60106     37926.35 
   38700    304.58609   -1351.6466    406.54791     428.5741    252.61681     37926.35 
   38800    298.92955   -1365.1061    408.19427    391.25011    54.398774     37926.35 
   38900    291.33149   -1396.7549    399.09526    316.23536    179.94794     37926.35 
   39000    297.40506   -1389.6562    389.18085     340.8112    170.98525     37926.35 
   39100    299.12399   -1379.7282    399.95946    369.27022   -279.25134     37926.35 
   39200    301.99466    -1370.634    412.68997    404.04153    104.19028     37926.35 
   39300    287.76575   -1360.1339    381.46134    319.14111    206.54414     37926.35 
   39400    296.63637   -1364.8877    404.89003    377.82215     193.9462     37926.35 
   39500    304.09388   -1354.9735    395.08025    411.55963    -94.08001     37926.35 
   39600    294.80306   -1374.7626    403.38342     358.1725     -152.096     37926.35 
   39700    307.41145   -1361.3556    400.85797    425.91747    166.41439     37926.35 
   39800    304.46873   -1368.5938    412.46891    417.01866    288.35716     37926.35 
   39900    295.59214   -1369.0839    428.33909    392.36556    495.22356     37926.35 
   40000    298.99864   -1316.4111    427.09238    459.15491     431.6498     37926.35 
   40100    307.79595   -1338.9316    395.80991     445.0275    214.01177     37926.35 
   40200    293.27883   -1320.3124    426.91916    429.28424    138.67418     37926.35 
   40300    305.64988   -1347.1008    400.52347    431.89314    406.33894     37926.35 
   40400    303.25003   -1326.7115    418.81521    459.75094    78.930819     37926.35 
   40500    301.49954   -1310.3412    417.17493    466.58629   -224.51007     37926.35 
   40600    294.98869   -1330.4835    401.54461    401.44994   -89.537425     37926.35 
   40700    316.56558   -1326.9539    399.02526    499.77123   -77.776646     37926.35 
   40800    306.34459   -1337.3976    401.71209    445.91806    154.53103     37926.35 
   40900    298.53417   -1319.4186    422.66706    449.62732   -150.86595     37926.35 
   41000    305.74723    -1347.582    410.50377    441.83124    319.40744     37926.35 
   41100    300.14194   -1358.3591    424.76584     420.0365    401.28823     37926.35 
   41200    306.58912   -1347.1829    425.69081     461.2143    225.63812     37926.35 
   41300    293.27323   -1373.4472    414.63442    363.83935   -396.74597     37926.35 
   41400     301.7458   -1363.3931    405.71931    403.18932    32.855109     37926.35 
   41500    304.05462   -1342.9036    429.84801    458.22024    -143.9983     37926.35 
   41600    293.05169   -1335.2369    432.94478    419.36098    54.907491     37926.35 
   41700    306.01985   -1377.8957    416.81347    419.05677    312.31217     37926.35 
   41800    287.92625   -1319.5139    414.21278     393.2364   -424.27613     37926.35 
   41900    306.90073   -1325.4961    412.77646    471.39206    165.14685     37926.35 
   42000    297.61719   -1382.8658    425.15303    384.53056    47.244909     37926.35 
   42100    299.87596   -1355.4421    409.17009    406.15829     357.9355     37926.35 
   42200    285.29383   -1389.5479    430.94792    328.06538    472.22492     37926.35 
   42300    297.93075   -1347.7975    402.98395    398.84385    542.39787     37926.35 
   42400     291.8108   -1417.8944    393.66737    291.82965    201.21476     37926.35 
   42500    299.26452   -1379.0386    403.95557    374.58967    50.466117     37926.35 
   42600    305.33744   -1367.0191    399.35596    409.39816    97.881341     37926.35 
   42700    303.83679   -1377.9045    407.29683    399.68582   -167.19383     37926.35 
   42800     298.3293   -1335.3431    408.88939    419.00116   -423.34073     37926.35 
   42900    301.71748   -1366.9099    398.74828    392.57384    228.25659     37926.35 
   43000    297.71937   -1406.9309    392.71678       328.49    19.668779     37926.35 
   43100    299.99236   -1386.6895    387.99555    354.26129     539.2959     37926.35 
   43200    299.16396   -1364.2491    412.86249    397.83255    552.62435     37926.35 
   43300    300.87277    -1404.884    416.02734    368.06918    225.24725     37926.35 
   43400     301.7353   -1384.0859    419.93323    396.66319    851.43797     37926.35 
   43500    290.95759   -1367.1801    429.76664     374.7953    636.43526     37926.35 
   43600    303.62235   -1363.4762      416.596     422.4461   -6.4820564     37926.35 
   43700    296.66795   -1346.8281    440.00124    431.13535    -450.0505     37926.35 
   43800    291.23999    -1366.025    399.44567    346.90304    179.21235     37926.35 
   43900    291.74522     -1371.54    436.34947    380.57041    357.84528     37926.35 
   44000    309.87634   -1366.6685    421.59193    452.45512    496.36642     37926.35 
   44100    299.65211   -1373.9784    406.24721    383.68953    476.98163     37926.35 
   44200     296.9454   -1331.1961    417.26824    425.28571     424.0851     37926.35 
   44300    295.38336   -1324.2204    394.59425    402.54263    582.59046     37926.35 
   44400     295.4663   -1348.1525    424.37452    408.76485    273.65123     37926.35 
   44500    299.23899   -1348.3931    394.87928    396.04373   -137.66383     37926.35 
   44600    304.47702   -1345.1588    418.04131    446.06337   -257.02104     37926.35 
   44700    306.42647   -1354.0341     431.8631    459.80185    158.35244     37926.35 
   44800    297.68462   -1344.7427    409.19246    406.99713   -278.38879     37926.35 
   44900    298.79573   -1357.9023    415.26988    404.92601   -251.82431     37926.35 
   45000    299.94232   -1368.7669    400.61382    384.57643   -114.44019     37926.35 
   45100    303.07278   -1376.1205     413.5963    404.32362   -134.77073     37926.35 
   45200     303.6956   -1356.0184    392.04029    405.67857    60.323219     37926.35 
   45300    291.95895   -1303.5917    405.69496    418.82806   -223.60287     37926.35 
   45400    305.08899   -1347.9543    435.96289    463.94941   -242.25744     37926.35 
   45500    311.80076   -1293.8692    435.30113    547.64267   -243.27531     37926.35 
   45600    294.77467   -1308.2548    434.30888    455.47773   -19.879735     37926.35 
   45700    300.07965   -1334.4389    441.08088    459.99092   -141.47731     37926.35 
   45800    306.56595   -1325.9385    438.13884    494.80222    407.06918     37926.35 
   45900    308.96159   -1338.8473    447.92044    502.47923     397.9601     37926.35 
   46000    303.38105   -1380.9166    418.32799    405.64948   -291.75456     37926.35 
   46100    295.51198   -1347.7842    432.89933    417.86395   -601.45059     37926.35 
   46200    307.83408   -1291.5405    456.46114    553.24178    165.04265     37926.35 
   46300    307.49567   -1295.8262     454.4258    545.39445   -280.54805     37926.35 
   46400    300.44913   -1303.8537    422.61338    473.77493   -296.43268     37926.35 
   46500    303.07968   -1308.9441    412.34637    470.28116   -89.302753     37926.35 
   46600     300.0585   -1358.3236    448.59912    443.52906    466.24185     37926.35 
   46700    304.91514   -1375.7404     431.7842    431.20054    73.653602     37926.35 
   46800     293.7954   -1315.7747    426.03738    435.26978    448.24553     37926.35 
   46900    305.19051   -1379.7361    439.53949    436.20209    102.50894     37926.35 
   47000    293.16509   -1294.6758    437.33471    464.82334    -42.86789     37926.35 
   47100    303.14491   -1314.5868    438.12194     490.7083    69.391475     37926.35 
   47200    296.65893   -1350.1399    415.46595    403.24761    218.41758     37926.35 
   47300    292.87137   -1328.0007     428.0345    420.87358   -162.43543     37926.35 
   47400    296.58553   -1327.9067     424.0862    433.77006     420.4855     37926.35 
   47500    309.97066    -1294.208    435.20366    538.95269    210.70769     37926.35 
   47600    296.88638   -1299.6374    430.58107    469.89102    321.81953     37926.35 
   47700    301.81619   -1370.4819    430.01841    420.71709    352.66726     37926.35 
   47800    304.48543   -1367.0031    443.41742    449.63319    313.62734     37926.35 
   47900    304.73847   -1359.6946    432.98443    447.64987   -328.77858     37926.35 
   48000     299.6197   -1357.6136    445.41457    439.07546   -341.12243     37926.35 
   48100    302.58463   -1369.9478    419.72196    414.42047    121.11869     37926.35 
   48200    305.61803   -1343.5107    415.96754    450.78365   -179.67088     37926.35 
   48300    294.71588   -1337.3071    432.68511     424.5365   -72.515493     37926.35 
   48400    298.66845   -1365.6149    428.48571    409.85527   -283.77743     37926.35 
   48500    300.72854   -1327.0791    449.53313    478.72941    62.762721     37926.35 
   48600    304.98022   -1369.2454    445.41093    451.61584    268.65684     37926.35 
   48700    303.77827   -1361.5318    420.46057    428.95833    212.56994     37926.35 
   48800    293.91531   -1347.8188    406.66414    384.39331    219.87539     37926.35 
   48900    301.62152   -1376.0652    399.19262    383.43006   -154.10459     37926.35 
   49000    308.36149   -1333.1329    428.69315    486.26002   -150.67005     37926.35 
   49100    307.77858   -1376.6398    429.83258    441.26357    -411.2085     37926.35 
   49200    299.26124   -1347.8124    451.71406    453.55963   -502.24207     37926.35 
   49300    293.77929   -1317.4427    457.81065     465.3025   -320.79133     37926.35 
   49400    308.56867   -1346.3396    442.48996     487.7844    353.75821     37926.35 
   49500    306.46538   -1341.7998    447.17752    487.52599    32.548097     37926.35 
   49600    310.03564   -1355.6837    450.97857    493.54492    355.46307     37926.35 
   49700    310.61236   -1365.1058    426.57809    462.32335    293.71799     37926.35 
   49800    296.36234   -1339.9264    469.86367    466.52125    295.08356     37926.35 
   49900    302.68036   -1374.2712    419.40623    410.21301    73.672202     37926.35 
   50000    291.01188    -1372.018    407.66519    348.10073   -26.949673     37926.35 
   50100     294.9344   -1368.2638     432.2508    394.13101    268.98681     37926.35 
   50200    297.98663   -1319.6918    433.25938    457.47706    565.53057     37926.35 
   50300     300.6264   -1356.2256    442.06442    441.65356    97.393496     37926.35 
   50400    310.38702    -1339.165    431.97462    492.64441   -652.57147     37926.35 
   50500    308.97975   -1357.6674    446.36671    482.18741   -183.66332     37926.35 
   50600    298.40974   -1381.3652    456.24221    420.69472    -391.0266     37926.35 
   50700    306.18105   -1360.9809    424.23961     444.1247    325.35988     37926.35 
   50800    294.89886   -1418.7919    445.42251    356.61436    419.65864     37926.35 
   50900    299.26432   -1391.8149    425.50961    383.36648    580.70838     37926.35 
   51000     286.7506   -1395.5243    449.63118    347.34225     528.7723     37926.35 
   51100    306.81206   -1391.2712    433.11501    425.55561    770.65229     37926.35 
   51200    297.20492   -1379.9659    456.77235    417.19038     987.4366     37926.35 
   51300    295.24588   -1390.5466    443.37503     384.3772    954.29297     37926.35 
   51400    305.65567   -1372.7012    444.66568    450.46105    106.67453     37926.35 
   51500    289.19839   -1392.2523    447.97548    359.99801    85.962499     37926.35 
   51600    304.52017    -1405.347    408.96864    376.99712    64.438879     37926.35 
   51700    296.62186   -1385.5333    425.32591    377.54698   -355.57643     37926.35 
   51800    307.11363   -1399.0159    430.03164    416.08768     204.3004     37926.35 
   51900    300.68439    -1415.319    426.42467    367.18196     20.75465     37926.35 
   52000    295.53916   -1394.1476    425.94037    364.66423   -191.77468     37926.35 
   52100     306.1526   -1349.2227    447.50986    479.02487   -165.96067     37926.35 
   52200    288.70602   -1365.5647    440.56411    377.05361   -133.59272     37926.35 
   52300    301.57426   -1363.5891    438.25519    434.75566     67.39633     37926.35 
   52400    300.76766   -1344.7239    454.64459    466.37244   -56.474893     37926.35 
   52500    309.27526   -1405.9329     447.7754    436.66332     -54.6254     37926.35 
   52600    299.34659   -1425.3196    444.88397    369.60723    30.065927     37926.35 
   52700    306.84192   -1374.5141    426.11982    435.45219    301.73435     37926.35 
   52800    308.25011   -1394.4446    409.83858    405.59142    398.45399     37926.35 
   52900    289.24947   -1379.9968    427.61668    352.12501    726.27197     37926.35 
   53000    302.64297    -1392.825    441.66196    413.74634     583.3153     37926.35 
   53100    295.70569   -1359.0306    457.92493    432.51682    135.99868     37926.35 
   53200       299.26   -1398.5982    432.41354     383.4676    205.13003     37926.35 
   53300     293.8883   -1376.3358    431.55315    380.64346    529.76469     37926.35 
   53400    297.49492   -1362.9179    431.64479    410.41878    35.580688     37926.35 
   53500    293.42824   -1368.1455    437.99523    393.20095   -363.04963     37926.35 
   53600    289.78347   -1359.9179    409.69021    356.68584    12.875939     37926.35 
   53700    300.42694   -1350.4727     439.1807     443.6232    445.60286     37926.35 
   53800    299.28231   -1384.4882    434.07285    399.33759    266.01576     37926.35 
   53900    301.73063   -1367.2817    447.64416    441.15725    149.73961     37926.35 
   54000    291.26258   -1349.1753    440.44602    404.85498   -185.58249     37926.35 
   54100    299.40394   -1352.1693    467.23276    465.36496     165.0054     37926.35 
   54200    299.98349   -1377.4077    453.86682    429.37434    265.61703     37926.35 
   54300     306.7485    -1355.974    448.21554    475.66671   -92.910035     37926.35 
   54400    304.04362   -1353.6064    444.53518    462.15505    363.56742     37926.35 
   54500    283.82408   -1407.1937    438.64169    311.48483    198.55561     37926.35 
   54600    292.10792   -1396.3889    431.48569    352.49344   -420.05151     37926.35 
   54700    301.14075   -1382.2803    423.16003    399.01419   -389.47789     37926.35 
   54800    292.78544   -1406.9025    455.96988    369.51969   -103.76615     37926.35 
   54900    296.08562   -1401.1886    418.58633    352.73373    53.029972     37926.35 
   55000    304.84454   -1430.2769     430.6898    375.25134    714.36576     37926.35 
   55100    300.11458   -1450.9474    428.32069     330.8797      393.494     37926.35 
   55200     306.4882   -1414.3177    432.27376    400.20734   -16.631493     37926.35 
   55300    300.95672   -1393.8407    433.30202    396.76579    225.00433     37926.35 
   55400    299.42317   -1429.5931    430.30198    351.09706     323.1166     37926.35 
   55500     309.2273   -1453.8454    435.69235    376.45142    341.00604     37926.35 
   55600    298.91756   -1447.5996    427.01977    327.52812   -239.92619     37926.35 
   55700    294.42943   -1389.8973    423.30241    361.27169    91.715359     37926.35 
   55800    296.67334   -1376.4967    445.78991    407.27977    188.64055     37926.35 
   55900     288.2476   -1398.3029    467.87188    369.55579    -238.9722     37926.35 
   56000      297.813    -1426.437    429.80794    346.49734   -27.810987     37926.35 
   56100    303.00738   -1360.5585    452.51985    458.51416    268.39323     37926.35 
   56200    303.82053   -1355.7509    473.02962    487.49882    3.5375436     37926.35 
   56300    299.63282   -1383.9562     441.2267    408.60423   -273.69045     37926.35 
   56400    293.86941   -1378.2723    444.60584    391.67441   -325.69372     37926.35 
   56500    311.21508   -1395.5393     432.0139    440.04392   -180.67414     37926.35 
   56600    293.14902   -1368.7016    426.60589    379.99633    -248.1021     37926.35 
   56700    296.36136   -1397.3818      437.685    376.88277     -249.203     37926.35 
   56800    293.99002    -1380.916    419.65271    364.62159   -35.977452     37926.35 
   56900    291.67292   -1393.5134    437.23321     359.1547   -97.798952     37926.35 
   57000    303.93979    -1374.199    431.15922    427.71818    283.23643     37926.35 
   57100    305.03175   -1428.0558    459.72998    407.35685   -75.943279     37926.35 
   57200    304.80885   -1407.7587    460.54159    427.46032    579.88681     37926.35 
   57300    309.06693    -1408.443    437.50208    422.94031    316.15691     37926.35 
   57400    307.85825   -1413.6472    454.77687    429.55979    705.79723     37926.35 
   57500    286.14691   -1443.0104    431.32866    278.83098   -155.12891     37926.35 
   57600    304.16678   -1428.9195    412.52776    355.38996    109.34652     37926.35 
   57700    304.01924   -1438.3138    427.52246    360.32493    127.19085     37926.35 
   57800    309.23723    -1453.587    428.31697    369.37923   -114.23649     37926.35 
   57900     289.2489   -1462.6366    442.78762    284.65358   -25.844882     37926.35 
   58000    291.55492   -1437.7732    442.31109    319.44054   -484.81151     37926.35 
   58100    305.62167    -1405.801     427.4702     400.0124   -471.77407     37926.35 
   58200    291.36004   -1405.2235    445.57917    354.37938   -211.38418     37926.35 
   58300    309.27066   -1447.1293    433.05867    380.72945   -142.86433     37926.35 
   58400    307.62967    -1393.906    436.78521    430.27841    113.19633     37926.35 
   58500     294.7165   -1392.7216    428.28215    364.72176      127.164     37926.35 
   58600    291.37588   -1418.0923     451.1974    347.20029   -160.68903     37926.35 
   58700    302.58708   -1406.6794    470.50105    428.47897   -105.51605     37926.35 
   58800    301.82979   -1420.3678    454.11018    394.98437   -361.62607     37926.35 
   58900    303.57362   -1403.1321    458.65106    424.62559   -405.58814     37926.35 
   59000    297.26129   -1374.8396    445.75032     411.5489    71.694625     37926.35 
   59100    296.92311   -1384.3631    446.81887    401.56879   -193.11043     37926.35 
   59200    298.38779    -1403.258     449.0722     391.5328   -85.803848     37926.35 
   59300    299.92621   -1360.9241    467.08682    458.81961   -205.31501     37926.35 
   59400    302.67788    -1359.821    450.07239    455.31821    109.67144     37926.35 
   59500    288.43808    -1381.991    475.65203    394.50691    84.160673     37926.35 
   59600     289.8728   -1403.5441     458.2059    361.97815   -43.072363     37926.35 
   59700    297.12055   -1391.5514    453.72129    402.17334    286.06413     37926.35 
   59800    301.27499   -1395.5041    444.54913    407.78487   -60.279608     37926.35 
   59900     298.7953   -1392.4026    459.09403    414.24794    603.77544     37926.35 
   60000    301.38853   -1362.1838    451.08743    448.15558      45.2853     37926.35 
   60100    311.97918    -1390.089     444.7333    461.65967    211.28132     37926.35 
   60200    305.14627   -1380.2541    436.60215    432.54723    144.84404     37926.35 
   60300    289.07645   -1326.3056    462.19464     439.6139   -315.29886     37926.35 
   60400    300.09807   -1351.0629     441.1301     443.4992   -359.11922     37926.35 
   60500    293.76527   -1402.9575    452.60784    374.52158   -446.78511     37926.35 
   60600    296.17675   -1399.0496    441.95646    378.65383   -830.95233     37926.35 
   60700    296.89787   -1410.5654    442.16366    370.59743   -941.24053     37926.35 
   60800    290.58187   -1400.4872     447.9016    357.92866   -944.79607     37926.35 
   60900    293.97387   -1426.1039    433.24032    332.94848   -457.44132     37926.35 
   61000    314.29353   -1398.4199    421.68672    440.71986   -336.07035     37926.35 
   61100    293.10847   -1395.0372    434.36039    361.23233    68.347763     37926.35 
   61200    303.16072   -1379.9995    443.16371    430.40861   -465.52574     37926.35 
   61300    298.99654     -1437.45    472.27404    383.28819    440.57624     37926.35 
   61400    308.13686   -1408.8843    445.36474    426.16712    217.91488     37926.35 
   61500    295.40509   -1363.6074    466.40446    435.06382    107.98415     37926.35 
   61600    297.28239   -1415.7908    444.62377    369.56633   -688.70137     37926.35 
   61700     289.3596   -1372.9121      453.888    385.97774   -395.68726     37926.35 
   61800    303.36324   -1403.1727    456.82253    421.80759   -79.496844     37926.35 
   61900    300.81245   -1367.3937    452.07605    441.33616     48.93694     37926.35 
   62000    301.00072   -1395.7334    446.36239    408.13189   -394.52341     37926.35 
   62100     301.6777   -1386.6572    456.83123    430.73007   -719.52597     37926.35 
   62200    298.73663   -1388.5743    462.51095     421.2286    52.124496     37926.35 
   62300    294.89823   -1422.2519    463.80994    371.53892    44.463914     37926.35 
   62400    306.95943   -1407.6796    455.52902    432.22593   -344.34174     37926.35 
   62500    306.52834   -1359.3244    476.76538    499.87331    17.710425     37926.35 
   62600    293.42278   -1409.6493    423.84101    337.51837   -580.38701     37926.35 
   62700    299.07333   -1388.1304    452.16855    412.84859   -366.78664     37926.35 
   62800    297.49138   -1373.5495    458.55696     426.6833   -273.15138     37926.35 
   62900    296.29528   -1403.2892    455.87534    388.86764   -323.97442     37926.35 
   63000    292.98373    -1373.813    460.74524    408.27881   -678.28343     37926.35 
   63100    305.58606   -1389.8588    442.17684    430.50062    25.887122     37926.35 
   63200    293.57637   -1371.6082    433.44279    385.85394   -347.20119     37926.35 
   63300    293.49268   -1396.3251    468.47898    395.79579   -957.71719     37926.35 
   63400    294.21795   -1407.6673    441.56982    360.81534   -106.67787     37926.35 
   63500    301.51888   -1415.9283    441.64267    385.55411   -259.81743     37926.35 
   63600    296.86465   -1374.8453    450.09137    414.09547    97.907305     37926.35 
   63700     293.0685   -1424.2407      444.964    342.45215    356.00167     37926.35 
   63800    300.55104   -1381.6709    481.13424    454.93819    704.27765     37926.35 
   63900    295.94536   -1417.7911    455.06804     371.9803    639.20187     37926.35 
   64000    299.87562   -1464.4089    447.58564    335.60547   -145.27771     37926.35 
   64100    293.08553   -1459.2391    449.25207    311.81862   -180.46472     37926.35 
   64200    311.16685   -1447.1606     449.0789    405.27011    381.88656     37926.35 
   64300    306.55686   -1420.1857    462.25876    424.63395    184.65453     37926.35 
   64400    290.91501   -1390.4539    464.08116    385.64394   -258.07145     37926.35 
   64500    295.28426   -1355.4297    438.75396    415.04611   -129.37093     37926.35 
   64600    302.73636   -1378.2294    451.31979    438.42094    3.9736609     37926.35 
   64700     295.7052   -1397.5863    456.49706    392.53104   -172.91771     37926.35 
   64800    307.42452   -1404.6295     453.1453    434.98978    51.840407     37926.35 
   64900    291.61982   -1415.3629    451.02405    350.85648    122.57698     37926.35 
   65000    296.74896   -1401.0765    451.47188      388.723    352.57313     37926.35 
   65100    304.79709   -1416.4644    420.66408    378.82407    300.54534     37926.35 
   65200    297.86037   -1398.3017    444.56166    389.60003    593.42507     37926.35 
   65300    298.04486   -1419.6919     420.9272     345.4074    535.65956     37926.35 
   65400    307.49097    -1442.981     434.8405    378.63315    406.99944     37926.35 
   65500    295.93554    -1429.827    448.96968    353.80181    65.906923     37926.35 
   65600    293.74517    -1410.736     439.6762    353.72076    613.41006     37926.35 
   65700    290.68708   -1412.7335    434.06341    332.31865   -2.6057348     37926.35 
   65800    300.92807   -1466.2332    439.20158     330.1436    245.74892     37926.35 
   65900    294.49345   -1434.3683    434.75852    328.54558    276.43295     37926.35 
   66000    305.32887   -1442.6542    439.44296    373.81148   -60.274619     37926.35 
   66100    293.83918   -1420.0566    457.28894    362.43693    211.46927     37926.35 
   66200    304.97662   -1420.3208    457.36019    412.47348     112.5106     37926.35 
   66300    308.20708   -1386.9903    435.09771    438.11077   -198.96237     37926.35 
   66400    299.23394   -1405.8322    471.70085    415.40343   -46.603002     37926.35 
   66500     307.3103   -1387.4629      465.917      464.413    350.84094     37926.35 
   66600    313.11378   -1377.1701    451.82579    486.78804    15.554004     37926.35 
   66700     289.1665   -1359.8408    461.26306    405.55324    364.77335     37926.35 
   66800    302.29665   -1353.0362    457.04183    467.35316    307.31757     37926.35 
   66900    301.28813   -1393.1042    463.74409    429.43895   -424.11184     37926.35 
   67000    297.19192   -1389.2941    436.96491    387.99611   -87.807874     37926.35 
   67100    301.19896   -1408.7239    448.92376    398.59676   -67.689108     37926.35 
   67200    301.72709   -1406.4883    446.08836    400.37887   -570.05815     37926.35 
   67300    294.79153   -1377.1199    463.58032    415.96006   -337.25889     37926.35 
   67400     300.1762   -1410.0627     464.8788    408.60043   -101.32999     37926.35 
   67500    302.79979   -1421.9406     436.1841    379.86013   -652.37911     37926.35 
   67600    295.72779   -1411.4744    458.68297    380.93074    -741.7959     37926.35 
   67700    296.66559   -1438.3474    450.80518    350.40936    -815.7139     37926.35 
   67800    308.32351   -1442.8568    445.89714    393.56877   -253.89424     37926.35 
   67900    298.39668   -1428.1366    462.56388    380.18604   -278.45116     37926.35 
   68000    299.47577    -1419.613    462.07628    393.08868    44.183302     37926.35 
   68100    311.00685   -1462.0651     442.1992    382.76435   -160.26495     37926.35 
   68200    308.70739   -1444.3486    470.91812    418.82923    145.66734     37926.35 
   68300    295.90489   -1466.1115    466.08051    334.48986    30.510967     37926.35 
   68400    291.38794   -1469.6511    468.47621    312.97465    161.38196     37926.35 
   68500    295.32397   -1402.0293    470.57206     400.4437   -349.06755     37926.35 
   68600    292.94827   -1416.3468    412.57713    317.41691   -370.26189     37926.35 
   68700    309.78239    -1372.544    446.15397    470.71786   -174.31184     37926.35 
   68800    306.53919   -1386.0052    449.89069    446.36672    151.63833     37926.35 
   68900    292.90117   -1408.7482    457.57216    369.79822    120.37781     37926.35 
   69000    298.41362   -1398.9554    446.79643    393.67625    855.30268     37926.35 
   69100    294.43279   -1365.5867    490.48812    452.78319    291.91936     37926.35 
   69200    304.03473   -1368.6839    442.47405    444.97637     432.9466     37926.35 
   69300    296.13983    -1354.301    459.18413    440.46356    910.00235     37926.35 
   69400    308.10064    -1409.585    490.78092    470.71927   -166.43419     37926.35 
   69500    291.33152   -1392.8579    460.14056    381.17781    77.359591     37926.35 
   69600    300.81999    -1426.507    439.11003     369.2908   -344.25047     37926.35 
   69700    303.69418   -1404.4495    466.92967    432.13045    12.290683     37926.35 
   69800    291.93978   -1426.0171    455.55487    346.17611    176.22204     37926.35 
   69900    301.76724    -1408.002    464.17812    417.13597   -480.58636     37926.35 
   70000    303.90836   -1378.6213    462.94047    454.93536     212.0447     37926.35 
   70100    302.45176   -1421.2712    439.10679    381.88266   -466.90542     37926.35 
   70200    295.62294   -1388.5049    483.83724    428.58168   -390.53848     37926.35 
   70300    301.63887   -1381.0375    440.57789     419.9213   -81.418823     37926.35 
   70400    297.10739   -1386.2289    458.30199    412.01722   -359.94249     37926.35 
   70500    302.91556   -1393.7878    438.72754    411.07856    25.817325     37926.35 
   70600    298.71767    -1379.326    462.50896    430.38934   -321.01151     37926.35 
   70700     288.4984    -1414.669    453.49731    339.94619   -90.498914     37926.35 
   70800    293.16068   -1373.4329    454.34779    403.05949    49.236679     37926.35 
   70900    297.72641   -1423.1071     475.6453     395.2741   -409.21924     37926.35 
   71000    294.74814   -1365.9865    468.05679    431.37427   -8.0245512     37926.35 
   71100    301.12432   -1378.3753    460.34275    440.02775   -210.45561     37926.35 
   71200    290.95473   -1421.1785    455.23333    346.25063   -731.66271     37926.35 
   71300    296.92593   -1429.4252    466.19567    375.89617   -425.05896     37926.35 
   71400    306.58424   -1423.1975    462.11004    421.59697   -192.85595     37926.35 
   71500    297.11102   -1411.8849    479.32587    407.40146   -190.16232     37926.35 
   71600    308.93707   -1393.4278    446.20948    446.07724    90.615558     37926.35 
   71700    300.65359   -1364.5928    447.96019     439.3048    43.690351     37926.35 
   71800     306.2259   -1404.3152    453.83281    430.58592   -55.758192     37926.35 
   71900    306.17831   -1368.0298    455.03411    467.85794   -218.66978     37926.35 
   72000    300.02015    -1387.456    433.24351    398.86809    477.53773     37926.35 
   72100     294.1168   -1420.9109    475.52039    381.06619    241.67342     37926.35 
   72200    300.86618   -1414.2432    445.53944     388.1924    555.65514     37926.35 
   72300    301.85788   -1437.6273    437.40597    361.14735    55.194025     37926.35 
   72400    294.60402   -1389.3595    424.96163    364.25616   -24.453922     37926.35 
   72500    290.18553   -1375.8916    475.05909    407.89426     391.3461     37926.35 
   72600    295.44725   -1433.1258    478.60081    377.93202    257.55686     37926.35 
   72700    300.67135   -1499.9662    443.01508    299.06629   -78.550005     37926.35 
   72800    300.30852   -1420.4662    463.93132    397.84624   -413.23294     37926.35 
   72900     304.3029   -1400.4611    439.00842    410.94295   -301.79216     37926.35 
   73000    304.12287   -1402.1752    442.74313    412.15164   -650.05984     37926.35 
   73100    293.16986   -1395.4654    447.87156    374.59211   -587.03467     37926.35 
   73200    290.81205   -1396.9418    446.42432    361.03481   -439.61217     37926.35 
   73300    302.23002   -1397.9965     453.9763    419.02676    67.577834     37926.35 
   73400    293.88263    -1402.036     466.4034    389.76795    231.28651     37926.35 
   73500    306.10822   -1375.0577    474.03299    479.51282     496.2514     37926.35 
   73600    296.30006   -1375.9901    463.19447     423.5075    214.05841     37926.35 
   73700    303.38096   -1372.7605    455.31705    450.79423    -123.7619     37926.35 
   73800    312.11131   -1393.4542     439.6825    453.83956   -205.50034     37926.35 
   73900    299.47682   -1404.7359    475.37965    421.27394   -617.78747     37926.35 
   74000     306.7109    -1407.923    454.50869    429.84131   -401.16515     37926.35 
   74100     301.8178   -1390.9695    455.23814    425.45654   -370.92361     37926.35 
   74200    299.94922   -1411.4679    459.48551    400.77827   -207.71665     37926.35 
   74300    301.36407   -1405.9304    456.29208    409.50328   -233.22509     37926.35 
   74400    301.54186   -1412.5761    471.72281    419.09014   -236.56754     37926.35 
   74500    302.59117    -1429.934    459.98768    394.72939    228.51908     37926.35 
   74600     307.4241   -1404.2591     447.2864    429.49942   -58.793216     37926.35 
   74700    290.94168    -1429.967    451.92641    334.09643    299.46667     37926.35 
   74800    303.06615   -1414.2503    465.79278    418.36035    -56.15871     37926.35 
   74900    299.76324   -1398.8361    470.93297    424.01874    296.41883     37926.35 
   75000    309.77142   -1388.7698    471.11879    479.40747    316.88203     37926.35 
   75100    294.05163   -1419.6926    470.32437    376.79454   -35.679568     37926.35 
   75200    301.95708   -1403.4606    475.80355    434.15898   -22.330565     37926.35 
   75300    309.53668   -1423.0098    450.00919    422.99916   -222.10725     37926.35 
   75400    290.30283   -1404.8955    498.19914    402.55941    646.55889     37926.35 
   75500    305.51924   -1388.4105    474.09468    463.56546    635.32104     37926.35 
   75600    309.36905   -1416.3188    470.50741     449.4324    351.36624     37926.35 
   75700    300.51982    -1368.274    475.98033    463.04035   -403.03335     37926.35 
   75800    304.23601   -1422.9783    450.30057    399.41618    515.65202     37926.35 
   75900    296.06135   -1420.0168    457.23271    372.44242    906.82528     37926.35 
   76000    299.16496    -1418.566    479.67373    410.33138    1172.3673     37926.35 
   76100    302.49893   -1354.6819    457.49369    467.07158     400.8387     37926.35 
   76200    298.57659   -1380.6849    446.55413    412.43944     54.95463     37926.35 
   76300    298.64451   -1328.5967    470.41108    488.69089   -301.13275     37926.35 
   76400    300.43532   -1374.9426    469.30665      449.317    302.25469     37926.35 
   76500    302.27444   -1403.3167    481.44358    441.37426    560.34687     37926.35 
   76600    295.81206   -1435.0389    440.15496    339.21823    428.03896     37926.35 
   76700    297.80138   -1417.5007    456.86329     382.4366    306.03624     37926.35 
   76800    290.19435   -1453.5653    482.65456     337.8558    131.67678     37926.35 
   76900    298.42181     -1359.38    472.59704    459.08911    176.82863     37926.35 
   77000    292.18514   -1387.9846    480.53192    410.29222    253.59985     37926.35 
   77100    303.32398   -1429.4501    460.67705    399.20766    522.47653     37926.35 
   77200    295.50463   -1389.6934    440.86053    383.88286   -225.56052     37926.35 
   77300    293.15352   -1353.5558    463.87091    432.42737     67.94076     37926.35 
   77400     288.9807   -1371.6526    462.11215    393.75258   -99.700498     37926.35 
   77500    300.50141   -1416.0047    445.01157    384.25787    143.09101     37926.35 
   77600    295.68735   -1376.4246     460.6122    417.72743    588.23317     37926.35 
   77700    303.53412    -1436.503    467.78028    400.20567    497.78206     37926.35 
   77800    301.98841   -1404.7689    459.68188    416.87029    923.21816     37926.35 
   77900    291.85592   -1400.9711    468.63639    383.92548    195.15897     37926.35 
   78000    297.39573   -1444.8092    458.89548    355.33076    26.909617     37926.35 
   78100    298.40583   -1425.3762    459.07587    379.49975    101.66707     37926.35 
   78200    299.18506   -1421.9031    465.15301    392.56425    285.09622     37926.35 
   78300    300.00898    -1408.803    460.70224    404.92938    554.85486     37926.35 
   78400    292.62085   -1412.0155    475.50638    383.20086    289.89362     37926.35 
   78500    290.29611   -1393.5754    490.68607    406.33611    418.14345     37926.35 
   78600    303.19904   -1379.8481    460.15381    447.72293    261.66237     37926.35 
   78700    304.47565    -1393.181    447.36481    427.35853   -609.79328     37926.35 
   78800    295.79738   -1452.5424    450.95182     332.4454   -271.11104     37926.35 
   78900    305.20794   -1446.0369    446.11537    376.55578   -216.65753     37926.35 
   79000      301.427   -1426.6196    447.53473    380.34051   -215.37482     37926.35 
   79100    297.86925   -1448.1629    468.56502    363.78224    468.20706     37926.35 
   79200    289.70016   -1442.8539    467.50245     331.1863    240.79938     37926.35 
   79300    299.39469   -1456.1623    467.23811    361.33554    184.64773     37926.35 
   79400    307.76408   -1480.5448    453.30788    360.76846    202.70767     37926.35 
   79500    295.06882   -1441.7582    427.74656     316.7386    296.85855     37926.35 
   79600    296.78824   -1425.1877    469.48298    382.80002    222.70223     37926.35 
   79700    311.06191   -1450.0101    459.51349    412.38193    54.150053     37926.35 
   79800    299.47466   -1425.4458    454.42338    379.59796     629.3955     37926.35 
   79900    302.75401   -1453.1501    457.81609    370.07613     446.3598     37926.35 
   80000    303.65084   -1461.2924    451.00279    359.16521   -385.90087     37926.35 
   80100    303.00353   -1460.4419    474.96596    381.05958    480.90145     37926.35 
   80200    308.61608   -1479.6538    465.26096    377.45511    765.47257     37926.35 
   80300    286.35676   -1461.0083    453.48307    283.93396    287.80746     37926.35 
   80400    300.13593    -1484.189    449.07081    318.48453    112.68116     37926.35 
   80500    297.27948   -1470.4757    432.24908    302.49356   -216.05038     37926.35 
   80600    296.75187    -1475.147     450.3764     313.5701   -209.39049     37926.35 
   80700    298.25992   -1502.9232    436.19597    278.41479    404.45113     37926.35 
   80800    301.78576   -1462.1125    471.13997    370.07086    202.73173     37926.35 
   80900    292.53724   -1470.8534    462.72981    311.20924    407.98801     37926.35 
   81000    297.40443   -1412.4982    470.17111    398.95666    570.17284     37926.35 
   81100     316.3005   -1458.4858    456.47793    424.49648    23.491853     37926.35 
   81200    311.76445    -1462.039    458.43194    402.43986   -220.26311     37926.35 
   81300    302.45412   -1460.7372    461.34076    364.66121   -56.740372     37926.35 
   81400    293.19347   -1455.9155    477.69507    344.07198    371.30994     37926.35 
   81500     300.9698   -1448.2768    457.34695    366.43359    620.89122     37926.35 
   81600    298.69952   -1439.4932    455.20974    362.84107    759.20265     37926.35 
   81700    292.12057   -1428.0762    442.55931    331.93678   -43.019888     37926.35 
   81800    300.73827   -1442.1683    477.22576    391.37669   -240.43264     37926.35 
   81900    307.52159   -1422.9448    486.17064    450.13759    114.14952     37926.35 
   82000    303.02136   -1431.6692    464.76229    399.70905    310.26946     37926.35 
   82100    292.55791   -1447.6255     462.0919    333.89249     143.6175     37926.35 
   82200    301.56343   -1461.5692    465.52717     363.9987    43.865977     37926.35 
   82300    298.01881   -1469.5097    452.47941    327.02435   -386.38364     37926.35 
   82400     301.9381   -1457.0136    443.69715    348.41399    -453.3473     37926.35 
   82500    305.64335   -1466.3085    451.62327    363.75582   -233.13288     37926.35 
   82600    304.93607   -1494.1173    461.63098    342.76483    16.802391     37926.35 
   82700    289.71892   -1506.0343     469.9712    270.55931    56.403529     37926.35 
   82800    314.53935   -1457.3867    445.97161     407.1465    562.76514     37926.35 
   82900    297.55376   -1451.7734    474.15774    364.34159    325.43871     37926.35 
   83000    299.12798   -1485.9332    467.02547    330.14919    410.57492     37926.35 
   83100    302.38394   -1429.4479    465.46725    399.76056    523.99205     37926.35 
   83200    304.19403   -1445.8433    451.29746    377.35876    92.096347     37926.35 
   83300    297.29115   -1486.7642    443.27851    297.28717   -125.37032     37926.35 
   83400    314.48031   -1479.0425    450.39564    389.64855   -460.37919     37926.35 
   83500    291.44883   -1456.4047    453.72691    311.74645   -442.22897     37926.35 
   83600    302.76006   -1499.9984    478.09385    343.53289    521.43506     37926.35 
   83700    301.48575   -1451.7421    489.76947     397.7177   -221.84054     37926.35 
   83800    310.19485   -1470.9627    458.68519    386.69054    307.74199     37926.35 
   83900    298.16926   -1478.6456    468.34985    334.43737   -630.13106     37926.35 
   84000    296.53957   -1473.1744    467.66573    331.87459   -193.44796     37926.35 
   84100    300.35445   -1488.3163    445.65143    311.92333   -663.05991     37926.35 
   84200    306.06804    -1457.028    467.21516    390.54346   -334.89257     37926.35 
   84300    309.02031   -1464.2498    440.92747    370.34865   -414.02213     37926.35 
   84400    307.05713   -1452.3944    459.84357    392.26632    189.35388     37926.35 
   84500     301.7299   -1433.8239    465.03508    392.00265   -433.03093     37926.35 
   84600    288.87421   -1426.0561    465.38706    342.14375   -650.49582     37926.35 
   84700    303.24182   -1437.9923    475.37733    404.99518   -299.88849     37926.35 
   84800    289.78039   -1471.5263     475.4827    310.85603   -145.62848     37926.35 
   84900    300.43866   -1428.5579    477.57062     403.9808    104.26909     37926.35 
   85000    302.04923   -1424.2685    475.77541    413.73859    412.02057     37926.35 
   85100    306.51702   -1438.8919    499.69377     443.1831   -93.332008     37926.35 
   85200    296.09608   -1413.6592    471.06482    392.78874   -256.22898     37926.35 
   85300    301.85035   -1487.7779    455.43404    328.99084     -11.4235     37926.35 
   85400    300.99981   -1457.2011    483.03455     383.3322   -600.94627     37926.35 
   85500    297.04998   -1414.7377    473.43753    398.38505    -512.3669     37926.35 
   85600     293.3987   -1425.1415     449.5745    347.65107    -445.1864     37926.35 
   85700    307.67603   -1425.5096    454.86226    416.96096    -267.8859     37926.35 
   85800    315.16071   -1429.5423    485.43759    477.25929   -597.96957     37926.35 
   85900    293.26039   -1426.1106    477.13476    373.61843   -177.11942     37926.35 
   86000    307.46768   -1450.4791    446.27103     382.4606   -219.70698     37926.35 
   86100    291.23964   -1451.3188    476.53535    338.69734   -34.077433     37926.35 
   86200     289.7756   -1469.2337    470.25607    307.90036    10.892563     37926.35 
   86300    307.11274   -1434.1199    444.43853    395.38651    412.48083     37926.35 
   86400    295.45878   -1419.3826    464.34141    377.46771    261.24395     37926.35 
   86500    291.24436   -1428.1206    475.74966    361.13107   -30.230571     37926.35 
   86600    296.82189   -1466.8528    463.37662    335.18036     801.6267     37926.35 
   86700    295.00512   -1460.1139     456.3775    326.72653      568.678     37926.35 
   86800     307.7397   -1424.0552    480.82344    444.66368     73.79154     37926.35 
   86900    301.85494   -1430.3048    464.91105    395.96163    -488.3635     37926.35 
   87000    281.10695    -1422.575    480.44737    325.65507   -618.83612     37926.35 
   87100    305.28162    -1449.345    465.09274    392.55731   -474.91508     37926.35 
   87200    302.72745   -1488.7887    448.10625    324.60796   -658.02775     37926.35 
   87300    297.77708    -1463.596    474.25998    353.62834   -186.75133     37926.35 
   87400    298.93776   -1413.1491    499.46605    434.51601   -347.05558     37926.35 
   87500    305.59127   -1470.8038    465.07115    372.47351   -298.45629     37926.35 
   87600    310.29449   -1453.5798    470.43999    416.27763    315.66659     37926.35 
   87700    297.13199   -1490.3348    456.94672    306.66699   -132.27337     37926.35 
   87800    306.41353   -1477.0796    461.42425    366.25914    493.37089     37926.35 
   87900    299.94006    -1510.317    492.12814    334.53046    482.76215     37926.35 
   88000    296.69095   -1504.4143    458.66628    292.31796    228.16638     37926.35 
[...]
  984600    292.94008   -1487.2082    518.09857    352.04008    710.42948     37926.35 
  984700    294.27111   -1500.7589    495.73007    322.12377    184.42984     37926.35 
  984800    293.35247   -1449.6958    483.31657    356.63033   -236.29732     37926.35 
  984900    297.23118   -1490.1643    510.68885    361.02694   -342.71592     37926.35 
  985000    296.65818   -1467.0435    486.92391    357.79865   -54.702122     37926.35 
  985100     301.1952   -1512.4961    487.64213    333.52601    103.25216     37926.35 
  985200    301.46305   -1503.2142    500.05707    356.43085   -47.246434     37926.35 
  985300    296.03946   -1498.4062    479.10315    315.82478   -546.35476     37926.35 
  985400    299.32351   -1479.3987    488.08659    358.62667   -407.90577     37926.35 
  985500    300.65663   -1455.6907    481.07567    381.33608   -90.097526     37926.35 
  985600     299.1865   -1426.0197    473.22207     396.5232   -296.44088     37926.35 
  985700    307.66317   -1402.8337    492.98411    477.70068   -469.67931     37926.35 
  985800    298.93347   -1470.0701    496.73545    374.84496   -791.77594     37926.35 
  985900    308.01397   -1456.4403    497.33197    430.02405   -672.94947     37926.35 
  986000    289.88074   -1481.7309    486.35332    311.97456   -655.58362     37926.35 
  986100    294.87008   -1432.4942    488.47127    385.83102   -277.46549     37926.35 
  986200    294.48772   -1429.9561    499.94075    398.11411   -380.15687     37926.35 
  986300    290.24541   -1434.4097    502.79714    377.38427   -160.84928     37926.35 
  986400    306.50064   -1487.8903    493.49355    387.91055    139.25032     37926.35 
  986500    293.54173   -1470.9161    487.20322    340.15028   -161.51163     37926.35 
  986600    298.22818   -1466.9907    499.60006    377.60816   -103.31835     37926.35 
  986700    296.55758   -1468.3311    542.28088    411.41426   -148.78687     37926.35 
  986800    292.29941   -1453.4878    492.54782    357.32028   -298.70505     37926.35 
  986900    298.41743   -1499.4105    467.14754    313.58943   -667.62525     37926.35 
  987000    302.45642   -1450.5709    487.21027     400.7074   -840.30104     37926.35 
  987100    313.66513   -1481.0885    459.20328    392.73372   -337.70172     37926.35 
  987200    294.88262   -1481.1255    484.19079    332.97579    114.13315     37926.35 
  987300    303.48653    -1499.131    495.31632    364.89912   -31.533441     37926.35 
  987400    298.32305   -1469.6164    513.22129    389.03156    569.50354     37926.35 
  987500    292.49922   -1503.6433    482.36383    297.88192   -649.18382     37926.35 
  987600    295.21229   -1488.5305    456.06982    298.93656    91.233993     37926.35 
  987700    304.72108   -1501.1752    487.46217    360.56858    1090.0918     37926.35 
  987800     298.1704   -1488.0543    505.58636    362.27034    811.38829     37926.35 
  987900    298.27765   -1462.7456    487.25463    369.73099    909.50102     37926.35 
  988000    295.49648    -1484.019    483.26638    331.92637    783.91219     37926.35 
  988100     302.9043   -1496.4433    471.06844    340.71306    414.35851     37926.35 
  988200    318.05823    -1514.951    482.71449    402.19521    385.64338     37926.35 
  988300    294.36543   -1523.2742    496.15511     300.4589    369.30667     37926.35 
  988400     300.5042    -1535.046    470.18857    290.40617   -1.6281954     37926.35 
  988500    313.35387   -1522.8189    469.32065    359.71691    306.82542     37926.35 
  988600    286.76759   -1538.1302    457.95059    213.13242    159.88427     37926.35 
  988700    302.05728   -1477.7802    516.40817    400.89592    392.49168     37926.35 
  988800     303.4097   -1458.5852    503.69255    413.47472    601.49279     37926.35 
  988900    309.19267   -1454.9477    470.70075    410.20134    205.98218     37926.35 
  989000    303.25995   -1462.1855    499.01013    404.51658   -258.80567     37926.35 
  989100    308.86832   -1473.0563    505.89283    425.82203   -307.85038     37926.35 
  989200    306.47544   -1412.7283     484.2198     453.6852   -319.89725     37926.35 
  989300    298.33092   -1451.4599    513.21219    407.21449   -141.00431     37926.35 
  989400    308.89207   -1424.8983    456.44776    424.64202   -409.50583     37926.35 
  989500    308.82529   -1414.5034    531.00438    509.29243   -1058.5116     37926.35 
  989600    300.66864   -1418.2857    474.21067    411.93023   -544.91099     37926.35 
  989700    298.91894   -1445.0077    507.28273    410.38911   -444.68052     37926.35 
  989800    300.38654   -1419.5558    471.98287     407.1601   -581.97818     37926.35 
  989900    303.51766   -1455.5613    510.56257    423.85549    70.515599     37926.35 
  990000    297.63091   -1460.1022    474.46576    356.66869   -198.47045     37926.35 
  990100    294.24208   -1464.0991    497.01303     359.9356   -325.83395     37926.35 
  990200    289.59553   -1489.1544    507.39993    324.31137   -86.230409     37926.35 
  990300    305.46785   -1502.7099    476.11761    351.05716    365.66435     37926.35 
  990400    302.63102   -1517.7459    468.94912    316.05866    153.18089     37926.35 
  990500    304.68898   -1504.9145    473.70425    342.92653    370.62619     37926.35 
  990600    309.15243   -1516.9894    492.01219     369.2896    555.09513     37926.35 
  990700    290.45041   -1464.7206    445.25556    290.45629    151.45206     37926.35 
  990800    299.99679   -1474.8956    489.66717    367.74675    414.22119     37926.35 
  990900    296.39314    -1496.078    456.60544    297.25031    480.49343     37926.35 
  991000    292.21414   -1464.7969    483.73403    336.81286    122.43332     37926.35 
  991100    296.53315   -1518.2741    489.46323    308.54343   -515.35856     37926.35 
  991200    293.35634   -1516.0673    493.34929    300.30903   -513.71287     37926.35 
  991300    290.30594   -1504.6725    481.72072    286.31801   -766.70486     37926.35 
  991400    297.46962   -1467.0953    515.01144    389.49388   -533.70386     37926.35 
  991500    300.78784   -1510.9915    496.79486    342.34616   -29.276418     37926.35 
  991600    305.13305   -1454.5287      497.952    419.56283    33.176684     37926.35 
  991700    300.03272   -1527.8486    470.35622    295.64486   -606.16051     37926.35 
  991800    296.87154   -1503.5274     481.8786    317.23164   -75.044418     37926.35 
  991900     300.3527   -1483.8463    467.46929    338.20332   -45.018373     37926.35 
  992000    292.47377    -1458.773    499.35049    359.62417    498.25552     37926.35 
  992100    308.66571   -1481.6973    484.72227    395.09672    174.73975     37926.35 
  992200    295.11172   -1477.5979     493.4687    346.81448   -220.36026     37926.35 
  992300    289.21762   -1450.8159    492.74895    346.29453   -17.604061     37926.35 
  992400    292.99566   -1427.8214    484.64442    378.22336    228.25934     37926.35 
  992500    310.83001   -1424.0485     480.7132    458.49733    342.58646     37926.35 
  992600    291.07819   -1479.5838    490.25834    323.42719     466.9752     37926.35 
  992700    289.18812   -1467.9599     476.4413    312.70986    56.243451     37926.35 
  992800    305.77441   -1420.2571    479.11034    437.88529    84.657098     37926.35 
  992900    306.10123   -1452.7587    463.81815    391.56552    -419.3715     37926.35 
  993000    299.10841   -1396.1125    504.17033    457.02648   -349.26585     37926.35 
  993100    306.78034   -1471.5999    488.53776    400.50664   -260.13539     37926.35 
  993200    297.02232   -1460.3926    478.36116    357.52899    86.702906     37926.35 
  993300    295.46906   -1445.0258    487.80885    375.33832    152.61917     37926.35 
  993400    292.77424   -1426.9657    480.00145    373.43755   -148.12983     37926.35 
  993500    299.89039   -1479.0453     500.7949    374.24489    -410.4893     37926.35 
  993600    302.95764   -1448.6248      482.003    399.70669    7.7114042     37926.35 
  993700    293.90316   -1435.0136     470.4151     360.8947   -138.20061     37926.35 
  993800    310.07126   -1476.2839    519.58859    441.71542   -450.43767     37926.35 
  993900    298.19327   -1431.0062    470.37193    384.20719   -625.54131     37926.35 
  994000    302.58638    -1460.705    471.46834    375.41747   -755.32993     37926.35 
  994100    308.77057    -1449.914    479.47615    422.10682   -130.65254     37926.35 
  994200    291.22503   -1461.3721    477.01567    329.05842   -644.86446     37926.35 
  994300     295.0234    -1440.765    474.87856    364.65893    6.8860251     37926.35 
  994400     303.5464   -1409.0755    466.05748     425.9658   -857.95854     37926.35 
  994500    296.62754    -1459.238    472.31459    350.85659   -373.82007     37926.35 
  994600    289.54003   -1426.1573    475.50603    355.16432    122.03138     37926.35 
  994700    292.32821   -1427.0869    488.55085    379.85408    -234.2994     37926.35 
  994800    300.65241   -1428.3616    491.95172    419.52215   -425.41913     37926.35 
  994900    297.43945   -1442.2211    485.20029    384.42084    -545.4315     37926.35 
  995000    291.13783   -1431.0447    494.55385    376.53073   -183.23851     37926.35 
  995100    313.46383   -1445.9742    465.23172    432.96856   -45.748424     37926.35 
  995200    293.62875   -1443.2018     470.9309    351.98468   -513.42113     37926.35 
  995300     304.5454   -1412.6506    496.53606    457.37469     -339.305     37926.35 
  995400    298.39017   -1447.3943    490.13196    388.46704     128.2997     37926.35 
  995500    288.29602    -1398.321    496.48693    398.37105    439.52971     37926.35 
  995600    288.68732   -1412.6061    479.39687    368.76065    399.90926     37926.35 
  995700    297.65008   -1414.0626    492.79301      421.122     163.0012     37926.35 
  995800    308.07422   -1421.6459    486.52806    454.28629    215.97243     37926.35 
  995900    295.23763   -1453.4064     469.3982    347.50337    308.43831     37926.35 
  996000    294.58246    -1440.165    487.08996    375.48172    260.33602     37926.35 
  996100    292.33904   -1445.4329    453.60489    326.61096   -458.15757     37926.35 
  996200    307.81027   -1456.6166    469.23362    400.83074   -38.166287     37926.35 
  996300    300.32695    -1430.592    484.70769    408.57992    58.167578     37926.35 
  996400    302.97174   -1472.3162    476.76851    370.84443   -59.302766     37926.35 
  996500    284.67569   -1480.7442    496.92632    300.05973     358.2617     37926.35 
  996600    306.65378   -1454.5739    494.98945    423.41361    487.58915     37926.35 
  996700    297.10021    -1450.295     485.7835    375.40025     45.25765     37926.35 
  996800    302.57197   -1444.5583    488.56809    408.59892   -64.350241     37926.35 
  996900    290.20192   -1461.9937    458.87442    305.68137   -68.921624     37926.35 
  997000    302.90796   -1436.8255    493.01805    422.29704   -428.34723     37926.35 
  997100    299.36681   -1444.5577    494.76405     400.3404    206.53317     37926.35 
  997200    302.23943   -1415.1085    496.42266    444.40362    774.52891     37926.35 
  997300    292.16405   -1489.2308    482.93446    311.35347    134.09339     37926.35 
  997400      297.944   -1467.5831    484.56554    360.69967   -111.11978     37926.35 
  997500    300.96039   -1436.7307    500.37624    420.96651   -84.215355     37926.35 
  997600    293.98715   -1478.5486    468.64443    315.96778   -565.81819     37926.35 
  997700    298.91728   -1453.6397    483.89061    378.35757    32.117669     37926.35 
  997800    301.73602   -1417.8061    493.15856    436.17156    -7.324942     37926.35 
  997900    289.54281   -1440.3606    486.55889    352.02641   -128.53779     37926.35 
  998000    298.21837   -1422.4913    493.09864    415.56194   -185.21378     37926.35 
  998100    297.11323   -1414.8482    473.39847    398.52074    -127.4721     37926.35 
  998200    314.96468   -1462.7003    503.99194    461.77154    151.78487     37926.35 
  998300    292.14488   -1479.6328     462.6967    300.62729   -180.54408     37926.35 
  998400    289.94667   -1475.1847    507.62917    340.09404   -539.42868     37926.35 
  998500    296.98529    -1439.289    506.79743    406.90186    23.195428     37926.35 
  998600    303.20285   -1482.5762    475.64073    360.49894    49.798627     37926.35 
  998700    300.36543    -1441.509     503.2026    416.33134   -473.34665     37926.35 
  998800    296.83948   -1436.3389    478.15896    380.55593   -438.85041     37926.35 
  998900    307.83939    -1425.575    454.12413    416.89418   -163.17125     37926.35 
  999000    284.18972   -1455.3213    502.32189     328.6865   -473.92155     37926.35 
  999100    298.90969   -1488.3614    475.16854    334.87956    534.04304     37926.35 
  999200    301.06689   -1474.8367    492.50771    375.47232    83.823181     37926.35 
  999300    299.14702   -1418.1381    490.31792    421.32256    545.66036     37926.35 
  999400    300.48658   -1471.1215    490.88064    374.94324    699.19168     37926.35 
  999500    296.05823   -1460.5939    502.66538    377.28394      761.107     37926.35 
  999600    305.71752   -1457.8117    481.26043    402.22422    419.74857     37926.35 
  999700     293.7094   -1443.4889    486.00832    367.13873   -133.05661     37926.35 
  999800    303.89213   -1462.6024    467.85639    375.79702   -567.86393     37926.35 
  999900    295.23224   -1481.2621    491.11909    341.34424   -566.71817     37926.35 
 1000000    304.72175   -1499.1905    477.00314     352.0972   -895.69612     37926.35 
 1000100    303.52393   -1492.7279    457.01102    333.16562   -292.88138     37926.35 
 1000200    301.23459   -1475.2514    497.46663    380.77292    248.23324     37926.35 
 1000300      294.075   -1502.1506    472.73931    296.85683   -530.41248     37926.35 
 1000400    305.27375   -1495.6094    456.15747    337.32214   -91.344199     37926.35 
 1000500    293.56205    -1484.947    465.63512    304.64286   -123.76909     37926.35 
 1000600     304.5644   -1507.7632    475.10852    340.92028   -95.472799     37926.35 
 1000700    297.03765   -1471.9051    477.78594    345.51038   -218.50922     37926.35 
 1000800    304.34204   -1463.8167    470.93875    379.69419    139.98685     37926.35 
 1000900    294.66553   -1452.0811    490.55148     367.4018       203.53     37926.35 
 1001000    308.11483   -1411.2671    477.08536    455.40558    218.99619     37926.35 
 1001100    296.50516   -1409.3668    489.57206    417.43339    180.55947     37926.35 
 1001200    301.13057   -1436.4422    492.76066      414.407   -111.96682     37926.35 
 1001300    310.12363   -1490.0871    484.53441    393.09416   -108.45487     37926.35 
 1001400    315.48752   -1448.8661     475.3441    449.31588    313.38054     37926.35 
 1001500    298.92003   -1442.1099    503.37105    409.38017    87.901352     37926.35 
 1001600    304.44334   -1434.2571    470.20308    408.97492    526.22795     37926.35 
 1001700    303.62251   -1470.4948    469.69082    368.52304    163.27518     37926.35 
 1001800    297.72707   -1507.9964    482.13464    316.87709   -22.900845     37926.35 
 1001900    297.67322   -1482.6031    477.98149    337.87435    373.34004     37926.35 
 1002000     301.4747    -1457.525    469.41122    371.52674    230.12034     37926.35 
 1002100     287.6794   -1467.4491    474.66851    304.64361     527.3702     37926.35 
 1002200    303.41444   -1473.0101    481.96517    377.34374    824.88866     37926.35 
 1002300    301.37795   -1481.7702    456.78062     334.2146     317.8531     37926.35 
 1002400    303.01326   -1448.2337    487.00768    405.35335    386.96522     37926.35 
 1002500    298.98233   -1445.0929    469.32874    372.63583    151.24791     37926.35 
 1002600    302.52531   -1448.2192     471.9641    388.12368   -270.63311     37926.35 
 1002700     307.5017   -1468.2807    493.43332    411.97469   -94.253286     37926.35 
 1002800    297.53585   -1434.9629    512.51743    419.43096    851.02917     37926.35 
 1002900    308.99268   -1447.5866    489.83048    435.79024    383.00953     37926.35 
 1003000    295.18911   -1434.4785    492.46383    389.27803   -68.091412     37926.35 
 1003100    293.35711   -1448.0231    483.00111     358.0085   -191.84028     37926.35 
 1003200    304.13871   -1449.3107    471.29733     393.6418      223.093     37926.35 
 1003300    301.42923   -1459.6938    491.66226    391.40391   -87.848062     37926.35 
 1003400    299.26273   -1437.1957    498.73928    411.20821    236.66175     37926.35 
 1003500    302.47501   -1415.0356    519.81092    468.92717    187.97382     37926.35 
 1003600    301.46853   -1400.1692    495.15131    454.59482    560.34622     37926.35 
 1003700    294.24394   -1429.9956     487.0428    384.07728    394.85069     37926.35 
 1003800     296.5603   -1411.4562    509.42606    435.44655     131.6958     37926.35 
 1003900    292.61994   -1429.5834    494.48324    384.60577    349.92281     37926.35 
 1004000      302.486   -1427.0541    478.60668    415.75406    58.529049     37926.35 
 1004100     295.7979   -1459.9733    499.12254    373.18763   -487.72863     37926.35 
 1004200    303.95525   -1413.1142    485.60468    443.31819   -126.68126     37926.35 
 1004300    290.37847   -1445.8252    489.37125    353.14296    31.084898     37926.35 
 1004400    298.42134   -1419.1489    489.31269    416.03374    112.76897     37926.35 
 1004500    299.68635   -1438.8915     467.8232    380.50688    359.02731     37926.35 
 1004600    292.58521   -1486.0554    481.38778    314.88163    656.14267     37926.35 
 1004700    285.37975   -1475.7965    511.17852    322.43483    496.49277     37926.35 
 1004800    291.96668   -1432.2842    507.57889     392.0544    745.35839     37926.35 
 1004900    289.90934   -1414.4869    478.67492    371.66919    125.54776     37926.35 
 1005000    297.07403   -1455.3668    519.56476    403.99159    405.98474     37926.35 
 1005100    296.28056   -1484.8903     489.1831    340.50793    74.215032     37926.35 
 1005200    300.54175   -1467.7708    494.12912    381.79127    453.04829     37926.35 
 1005297    301.42519    -1470.753     499.0496    387.71382   -550.92805     37926.35 
Loop time of 606.24 on 32 procs for 1000000 steps with 1514 atoms

Performance: 142.518 ns/day, 0.168 hours/ns, 1649.511 timesteps/s
100.0% CPU use with 32 MPI tasks x no OpenMP threads

MPI task timing breakdown:
Section |  min time  |  avg time  |  max time  |%varavg| %total
---------------------------------------------------------------
Pair    | 248.86     | 273.56     | 301.82     |  86.9 | 45.12
Bond    | 1.3928     | 1.5624     | 1.787      |   7.5 |  0.26
Neigh   | 39.191     | 39.263     | 39.325     |   0.7 |  6.48
Comm    | 251.1      | 279.29     | 303.91     |  85.8 | 46.07
Output  | 0.39232    | 0.40883    | 0.85493    |  12.5 |  0.07
Modify  | 8.8387     | 9.0556     | 9.2708     |   4.2 |  1.49
Other   |            | 3.102      |            |       |  0.51

Nlocal:        47.3125 ave          78 max          15 min
Histogram: 2 1 2 5 6 4 6 3 1 2
Nghost:        1943.69 ave        2005 max        1902 min
Histogram: 2 2 6 6 7 3 4 1 0 1
Neighs:        5151.94 ave        8814 max        1420 min
Histogram: 3 0 2 8 3 4 6 2 2 2

Total # of neighbors = 164862
Ave neighs/atom = 108.89168
Ave special neighs/atom = 2.0277411
Neighbor list builds = 49707
Dangerous builds = 0

# Output the system volume
variable v equal vol
print 'The system volume is $v'
The system volume is 37926.3497902139

# Outputs
variable A equal xhi-xlo
variable B equal yhi-ylo
variable C equal zhi-zlo
variable D equal xy
variable E equal xz
variable F equal yz
print 'Lattice vectors'
Lattice vectors
print '$A 0 0'
33.5980198279764 0 0
print '$D $B 0'
0 33.5980198279764 0
print '$E $F $C'
0 0 33.5980198279764
Total wall time: 0:10:11
