LAMMPS data file
 1528 atoms
 1027 bonds
 549 angles
 64 dihedrals
 2 impropers
 7 atom types
 9 bond types
 4 angle types
 4 dihedral types
 1 improper types
 0 15 xlo xhi
 0 15 ylo yhi
 0 15 zlo zhi
 0 0 0 xy xz yz

# Atom types
#
# 1 N_2
# 2 C_2
# 3 C_3
# 4 O_3
# 5 O_2
# 6 H__HB
# 7 H_

# Bond Coeffs
#
# 1 N_2*C_2
# 2 N_2*C_3
# 3 N_2*H__HB
# 4 C_2*C_3
# 5 C_2*O_2
# 6 C_3*C_3
# 7 C_3*H_
# 8 C_3*O_3
# 9 O_3*H__HB

# Angle Coeffs
#
# 1 N_2
# 2 C_2
# 3 C_3
# 4 O_3

# Dihedral Coeffs
#
# 1 C1
# 2 B1
# 3 A1
# 4 A2

# Inversion Coeffs
#
# 1 1

 Masses

 1 14.01
 2 12.01
 3 12.01
 4 16
 5 16
 6 1.01
 7 1.01

 Atoms # full

1 1 1 0 8.00015472498214 9.86503648818345 -0.290682867457949
2 1 2 0 6.69633320210708 9.8750645153358 -0.662250714774139
3 1 3 0 5.53471355807257 10.1406958676849 0.222286857770041
4 1 3 0 5.38834711700318 11.6472291547374 0.572579849323265
5 1 3 0 4.23073255602716 11.9304504351843 1.55810758841453
6 1 4 0 4.49435908022324 11.3092091585997 2.82385768697578
7 1 5 0 6.4789449663888 9.62990919873946 -1.8711376969672
8 1 3 0 8.55275190014155 10.0601837358993 1.01498164294079
9 1 3 0 9.38977592961945 8.8225932475528 1.42727066441823
10 1 3 0 9.97716463289254 8.89133465046319 2.86380095327157
11 1 3 0 11.0563964589738 9.9800261491319 3.06593748213221
12 1 6 0 8.64206720929154 9.6938478708749 -0.998420361018745
13 1 7 0 5.62982629669995 9.53789011856998 1.12781131121393
14 1 7 0 4.61675425831913 9.81716675753084 -0.27786057937137
15 1 7 0 5.20296339952397 12.2081180298379 -0.348037186735763
16 1 7 0 6.3134256982349 12.0283775592282 1.01142000507524
17 1 7 0 3.29212295604011 11.5519268862744 1.14528899419568
18 1 7 0 4.14067801450728 13.0105291177722 1.69971552947291
19 1 7 0 7.791113566613 10.2420712519006 1.77424810500976
20 1 7 0 9.1957661240563 10.9403540618686 0.965043730224771
21 1 7 0 10.2049942811974 8.68071384983131 0.712024108500144
22 1 7 0 8.7459348133231 7.9396382257815 1.3719847123588
23 1 7 0 10.4297015404824 7.92259041377093 3.09296587455001
24 1 7 0 9.168614404491 9.05328801060564 3.58160136236199
25 1 7 0 11.4772894461888 9.89728720227679 4.06980186041569
26 1 7 0 10.6257816332774 10.976421804554 2.95693895119518
27 1 7 0 11.8628317252387 9.85782514609211 2.34027659977718
28 1 6 0 3.73384449284719 11.3181753691141 3.95437200331913
29 2 6 0 8.41772814441472 5.78477673739195 14.6439629921224
30 2 4 0 9.37772814441472 5.78477673739195 14.6439629921224
31 2 6 0 9.61772814441472 4.85477673739195 14.6439629921224
32 3 6 0 -0.535169144421816 11.4930433178693 3.98990513524041
33 3 4 0 0.424830855578184 11.4930433178693 3.98990513524041
34 3 6 0 0.664830855578184 10.5630433178693 3.98990513524041
35 4 6 0 6.41550036074594 4.39598345820792 6.31448770989664
36 4 4 0 7.37550036074594 4.39598345820792 6.31448770989664
37 4 6 0 7.61550036074594 3.46598345820792 6.31448770989664
38 5 6 0 13.257937126765 5.0162342276331 6.55526524060406
39 5 4 0 14.217937126765 5.0162342276331 6.55526524060406
40 5 6 0 14.457937126765 4.0862342276331 6.55526524060406
41 6 6 0 0.753156687570736 0.392833840278909 0.79584761057049
42 6 4 0 1.71315668757074 0.392833840278909 0.79584761057049
43 6 6 0 1.95315668757074 -0.537166159721091 0.79584761057049
44 7 6 0 -0.606032488429919 6.21537698706612 0.151361332973465
45 7 4 0 0.353967511570081 6.21537698706612 0.151361332973465
46 7 6 0 0.593967511570081 5.28537698706612 0.151361332973465
47 8 6 0 7.74556702977978 7.36530622624792 10.8984817529563
48 8 4 0 8.70556702977978 7.36530622624792 10.8984817529563
49 8 6 0 8.94556702977978 6.43530622624792 10.8984817529563
50 9 6 0 9.91344073598273 9.9976779361628 10.0401491951197
51 9 4 0 10.8734407359827 9.9976779361628 10.0401491951197
52 9 6 0 11.1134407359827 9.0676779361628 10.0401491951197
53 10 6 0 8.65424629577435 8.86735044460744 4.94032247224823
54 10 4 0 9.61424629577436 8.86735044460744 4.94032247224823
55 10 6 0 9.85424629577436 7.93735044460744 4.94032247224823
56 11 6 0 10.3776860392839 3.11202283407561 8.07662194012664
57 11 4 0 11.3376860392839 3.11202283407561 8.07662194012664
58 11 6 0 11.5776860392839 2.18202283407561 8.07662194012664
59 12 6 0 9.62070189110935 2.5884159774892 14.4629752496257
60 12 4 0 10.5807018911093 2.5884159774892 14.4629752496257
61 12 6 0 10.8207018911093 1.6584159774892 14.4629752496257
62 13 6 0 0.998422828707844 6.21204696520232 9.25613651750609
63 13 4 0 1.95842282870784 6.21204696520232 9.25613651750609
64 13 6 0 2.19842282870784 5.28204696520232 9.25613651750609
65 14 6 0 8.85001434406266 4.94396447361447 2.66826429055072
66 14 4 0 9.81001434406266 4.94396447361447 2.66826429055072
67 14 6 0 10.0500143440627 4.01396447361447 2.66826429055072
68 15 6 0 0.251549780806527 6.37831422424875 10.6552502524573
69 15 4 0 1.21154978080653 6.37831422424875 10.6552502524573
70 15 6 0 1.45154978080653 5.44831422424875 10.6552502524573
71 16 6 0 7.62108653711155 10.5466621920373 6.40014230855741
72 16 4 0 8.58108653711155 10.5466621920373 6.40014230855741
73 16 6 0 8.82108653711155 9.61666219203733 6.40014230855741
74 17 6 0 3.43519888862036 1.61236681550741 14.6305259875953
75 17 4 0 4.39519888862036 1.61236681550741 14.6305259875953
76 17 6 0 4.63519888862036 0.682366815507412 14.6305259875953
77 18 6 0 8.17747175155207 12.204317305414 4.69782899133861
78 18 4 0 9.13747175155208 12.204317305414 4.69782899133861
79 18 6 0 9.37747175155208 11.274317305414 4.69782899133861
80 19 6 0 8.30837654342875 6.59719091415405 13.8288239948452
81 19 4 0 9.26837654342875 6.59719091415405 13.8288239948452
82 19 6 0 9.50837654342875 5.66719091415405 13.8288239948452
83 20 6 0 3.8819462775439 12.8551776571572 10.3509204264265
84 20 4 0 4.8419462775439 12.8551776571572 10.3509204264265
85 20 6 0 5.0819462775439 11.9251776571572 10.3509204264265
86 21 6 0 4.70686717235483 2.10570231004618 12.9619626689237
87 21 4 0 5.66686717235483 2.10570231004618 12.9619626689237
88 21 6 0 5.90686717235483 1.17570231004618 12.9619626689237
89 22 6 0 11.2146035679337 4.92626633652486 10.8315370674245
90 22 4 0 12.1746035679337 4.92626633652486 10.8315370674245
91 22 6 0 12.4146035679337 3.99626633652486 10.8315370674245
92 23 6 0 8.88647284286097 7.35018986551091 10.2798005263321
93 23 4 0 9.84647284286097 7.35018986551091 10.2798005263321
94 23 6 0 10.086472842861 6.42018986551091 10.2798005263321
95 24 6 0 -0.0901091618277132 6.60539516638033 7.73007731535472
96 24 4 0 0.869890838172287 6.60539516638033 7.73007731535472
97 24 6 0 1.10989083817229 5.67539516638033 7.73007731535472
98 25 6 0 9.50687724907882 14.5019679136481 13.6686773167457
99 25 4 0 10.4668772490788 14.5019679136481 13.6686773167457
100 25 6 0 10.7068772490788 13.5719679136481 13.6686773167457
101 26 6 0 1.28249108020216 11.435327659538 9.37751881428994
102 26 4 0 2.24249108020216 11.435327659538 9.37751881428994
103 26 6 0 2.48249108020216 10.505327659538 9.37751881428994
104 27 6 0 7.37302563895471 7.05084139056504 11.0419494879898
105 27 4 0 8.33302563895471 7.05084139056504 11.0419494879898
106 27 6 0 8.57302563895471 6.12084139056504 11.0419494879898
107 28 6 0 5.63667482391 10.1060629849695 6.87660538125783
108 28 4 0 6.59667482391 10.1060629849695 6.87660538125783
109 28 6 0 6.83667482391 9.17606298496947 6.87660538125783
110 29 6 0 8.98582487876527 13.4624805969093 1.44345204345882
111 29 4 0 9.94582487876527 13.4624805969093 1.44345204345882
112 29 6 0 10.1858248787653 12.5324805969093 1.44345204345882
113 30 6 0 8.69623771679588 9.68027421314269 7.5984655902721
114 30 4 0 9.65623771679588 9.68027421314269 7.5984655902721
115 30 6 0 9.89623771679588 8.75027421314269 7.5984655902721
116 31 6 0 3.91965333765373 13.55077866273 8.1132586102467
117 31 4 0 4.87965333765373 13.55077866273 8.1132586102467
118 31 6 0 5.11965333765373 12.62077866273 8.1132586102467
119 32 6 0 7.22965070905164 3.36499513633549 6.13574157468975
120 32 4 0 8.18965070905164 3.36499513633549 6.13574157468975
121 32 6 0 8.42965070905164 2.43499513633549 6.13574157468975
122 33 6 0 0.767691246438772 8.62784968380816 5.82515987218358
123 33 4 0 1.72769124643877 8.62784968380816 5.82515987218358
124 33 6 0 1.96769124643877 7.69784968380816 5.82515987218358
125 34 6 0 12.2514120354038 15.0833767551836 0.554852621862665
126 34 4 0 13.2114120354038 15.0833767551836 0.554852621862665
127 34 6 0 13.4514120354038 14.1533767551836 0.554852621862665
128 35 6 0 3.93822874219157 3.67752454866655 8.06831931578927
129 35 4 0 4.89822874219157 3.67752454866655 8.06831931578927
130 35 6 0 5.13822874219157 2.74752454866655 8.06831931578927
131 36 6 0 1.42903584332205 7.98159701790661 3.99110475322232
132 36 4 0 2.38903584332205 7.98159701790661 3.99110475322232
133 36 6 0 2.62903584332205 7.05159701790661 3.99110475322232
134 37 6 0 13.0336449555773 4.60500209051184 14.9152400402818
135 37 4 0 13.9936449555773 4.60500209051184 14.9152400402818
136 37 6 0 14.2336449555773 3.67500209051184 14.9152400402818
137 38 6 0 9.38701853083447 7.61461878702044 5.18838696763851
138 38 4 0 10.3470185308345 7.61461878702044 5.18838696763851
139 38 6 0 10.5870185308345 6.68461878702044 5.18838696763851
140 39 6 0 6.82358497797512 8.00530031015165 7.74919127114117
141 39 4 0 7.78358497797512 8.00530031015165 7.74919127114117
142 39 6 0 8.02358497797512 7.07530031015165 7.74919127114117
143 40 6 0 1.06404704667628 9.1310335932672 8.69499220862053
144 40 4 0 2.02404704667628 9.1310335932672 8.69499220862053
145 40 6 0 2.26404704667628 8.2010335932672 8.69499220862053
146 41 6 0 0.110554326530546 1.80019621312618 7.05406975932419
147 41 4 0 1.07055432653055 1.80019621312618 7.05406975932419
148 41 6 0 1.31055432653055 0.870196213126182 7.05406975932419
149 42 6 0 2.40423837720417 11.3868256231677 1.98409908916801
150 42 4 0 3.36423837720417 11.3868256231677 1.98409908916801
151 42 6 0 3.60423837720417 10.4568256231677 1.98409908916801
152 43 6 0 11.8352154122852 9.52152457478456 5.9124875580892
153 43 4 0 12.7952154122852 9.52152457478456 5.9124875580892
154 43 6 0 13.0352154122852 8.59152457478456 5.9124875580892
155 44 6 0 4.78812754430808 3.48303014453501 4.56843921449035
156 44 4 0 5.74812754430808 3.48303014453501 4.56843921449035
157 44 6 0 5.98812754430808 2.553030144535 4.56843921449035
158 45 6 0 4.42894138206728 2.89116604876705 8.318740662653
159 45 4 0 5.38894138206728 2.89116604876705 8.318740662653
160 45 6 0 5.62894138206728 1.96116604876705 8.318740662653
161 46 6 0 2.38687040328048 4.97586116701364 0.184478232404217
162 46 4 0 3.34687040328048 4.97586116701364 0.184478232404217
163 46 6 0 3.58687040328048 4.04586116701365 0.184478232404217
164 47 6 0 9.24795122511685 12.9504161308892 2.49350085156038
165 47 4 0 10.2079512251168 12.9504161308892 2.49350085156038
166 47 6 0 10.4479512251168 12.0204161308892 2.49350085156038
167 48 6 0 9.48832460839301 13.8863823718298 4.64610965573229
168 48 4 0 10.448324608393 13.8863823718298 4.64610965573229
169 48 6 0 10.688324608393 12.9563823718298 4.64610965573229
170 49 6 0 12.1649253512453 0.784221186013892 2.74703946313821
171 49 4 0 13.1249253512453 0.784221186013892 2.74703946313821
172 49 6 0 13.3649253512453 -0.145778813986108 2.74703946313821
173 50 6 0 9.55624020120129 15.2170864426903 3.43028244213201
174 50 4 0 10.5162402012013 15.2170864426903 3.43028244213201
175 50 6 0 10.7562402012013 14.2870864426903 3.43028244213201
176 51 6 0 9.1369289536681 10.0359965608828 0.0385830772574991
177 51 4 0 10.0969289536681 10.0359965608828 0.0385830772574991
178 51 6 0 10.3369289536681 9.10599656088278 0.0385830772574991
179 52 6 0 4.86788886875846 5.57622675475664 1.10009078169242
180 52 4 0 5.82788886875846 5.57622675475664 1.10009078169242
181 52 6 0 6.06788886875846 4.64622675475664 1.10009078169242
182 53 6 0 13.7078088805731 7.94573343167081 6.41966600320302
183 53 4 0 14.6678088805731 7.94573343167081 6.41966600320302
184 53 6 0 14.9078088805731 7.01573343167081 6.41966600320302
185 54 6 0 5.76896082420833 0.690889843218029 0.146993900416419
186 54 4 0 6.72896082420833 0.690889843218029 0.146993900416419
187 54 6 0 6.96896082420833 -0.239110156781972 0.146993900416419
188 55 6 0 9.13986393294297 1.83151366462931 1.49988314369693
189 55 4 0 10.099863932943 1.83151366462931 1.49988314369693
190 55 6 0 10.339863932943 0.90151366462931 1.49988314369693
191 56 6 0 -0.540646313019097 14.3969100159034 14.9270804948173
192 56 4 0 0.419353686980903 14.3969100159034 14.9270804948173
193 56 6 0 0.659353686980903 13.4669100159034 14.9270804948173
194 57 6 0 5.48902343653142 12.3654600644391 10.1444866333622
195 57 4 0 6.44902343653142 12.3654600644391 10.1444866333622
196 57 6 0 6.68902343653142 11.4354600644391 10.1444866333622
197 58 6 0 5.54110082957894 15.2707759201899 14.8635335429572
198 58 4 0 6.50110082957894 15.2707759201899 14.8635335429572
199 58 6 0 6.74110082957894 14.3407759201899 14.8635335429572
200 59 6 0 10.6220994684566 8.30304381478578 7.65107157058083
201 59 4 0 11.5820994684566 8.30304381478578 7.65107157058083
202 59 6 0 11.8220994684566 7.37304381478578 7.65107157058083
203 60 6 0 8.61909648447297 2.61979716638103 13.0563196912408
204 60 4 0 9.57909648447298 2.61979716638103 13.0563196912408
205 60 6 0 9.81909648447298 1.68979716638103 13.0563196912408
206 61 6 0 2.26243397148326 7.10719758103602 14.0190776379313
207 61 4 0 3.22243397148326 7.10719758103602 14.0190776379313
208 61 6 0 3.46243397148326 6.17719758103602 14.0190776379313
209 62 6 0 5.76188202409074 13.5682005357835 9.00594522245228
210 62 4 0 6.72188202409074 13.5682005357835 9.00594522245228
211 62 6 0 6.96188202409074 12.6382005357835 9.00594522245228
212 63 6 0 11.9018918105587 11.950391551191 3.32988537847996
213 63 4 0 12.8618918105587 11.950391551191 3.32988537847996
214 63 6 0 13.1018918105587 11.020391551191 3.32988537847996
215 64 6 0 2.63358419339173 2.90457447100431 1.3396646536421
216 64 4 0 3.59358419339173 2.90457447100431 1.3396646536421
217 64 6 0 3.83358419339173 1.97457447100431 1.3396646536421
218 65 6 0 1.63269468859769 2.59333621053025 8.922468846431
219 65 4 0 2.59269468859769 2.59333621053025 8.922468846431
220 65 6 0 2.83269468859769 1.66333621053025 8.922468846431
221 66 6 0 2.44738236928359 5.91545268235728 6.43761307932436
222 66 4 0 3.40738236928359 5.91545268235728 6.43761307932436
223 66 6 0 3.64738236928359 4.98545268235728 6.43761307932436
224 67 6 0 0.208370748879388 9.7743601088319 4.18394338921644
225 67 4 0 1.16837074887939 9.7743601088319 4.18394338921644
226 67 6 0 1.40837074887939 8.8443601088319 4.18394338921644
227 68 6 0 2.48203955168836 9.1014765579626 6.86812236090191
228 68 4 0 3.44203955168836 9.1014765579626 6.86812236090191
229 68 6 0 3.68203955168836 8.1714765579626 6.86812236090191
230 69 6 0 9.76952166340314 14.8660156391002 13.1478714582045
231 69 4 0 10.7295216634031 14.8660156391002 13.1478714582045
232 69 6 0 10.9695216634031 13.9360156391002 13.1478714582045
233 70 6 0 10.3043179171812 8.47904454142787 9.44343237904832
234 70 4 0 11.2643179171812 8.47904454142787 9.44343237904832
235 70 6 0 11.5043179171812 7.54904454142787 9.44343237904832
236 71 6 0 4.64658808006905 9.15184350492433 7.3674524074886
237 71 4 0 5.60658808006905 9.15184350492433 7.3674524074886
238 71 6 0 5.84658808006905 8.22184350492433 7.3674524074886
239 72 6 0 4.44064174007624 1.92716597387567 6.75280210096389
240 72 4 0 5.40064174007624 1.92716597387567 6.75280210096389
241 72 6 0 5.64064174007624 0.997165973875672 6.75280210096389
242 73 6 0 6.42191868435591 6.74290205858648 4.10319210961461
243 73 4 0 7.38191868435591 6.74290205858648 4.10319210961461
244 73 6 0 7.62191868435592 5.81290205858648 4.10319210961461
245 74 6 0 2.38214594355784 14.6897469395213 11.8941413972061
246 74 4 0 3.34214594355784 14.6897469395213 11.8941413972061
247 74 6 0 3.58214594355784 13.7597469395213 11.8941413972061
248 75 6 0 11.6883990580402 7.62008445844054 8.04050147300586
249 75 4 0 12.6483990580402 7.62008445844054 8.04050147300586
250 75 6 0 12.8883990580402 6.69008445844054 8.04050147300586
251 76 6 0 3.34910172197968 6.10669686383568 9.64991593617015
252 76 4 0 4.30910172197968 6.10669686383568 9.64991593617015
253 76 6 0 4.54910172197968 5.17669686383568 9.64991593617015
254 77 6 0 4.48553171751089 13.0181719541457 14.085411617998
255 77 4 0 5.44553171751089 13.0181719541457 14.085411617998
256 77 6 0 5.68553171751089 12.0881719541457 14.085411617998
257 78 6 0 4.21002120405436 14.5065170553885 0.328661317471415
258 78 4 0 5.17002120405436 14.5065170553885 0.328661317471415
259 78 6 0 5.41002120405436 13.5765170553885 0.328661317471415
260 79 6 0 10.9610681833886 5.74674692511558 11.0972014360595
261 79 4 0 11.9210681833886 5.74674692511558 11.0972014360595
262 79 6 0 12.1610681833886 4.81674692511559 11.0972014360595
263 80 6 0 0.624953114166856 5.62155809876509 5.64845098298974
264 80 4 0 1.58495311416686 5.62155809876509 5.64845098298974
265 80 6 0 1.82495311416686 4.69155809876509 5.64845098298974
266 81 6 0 7.18705404477194 2.83452007844113 7.89640215807594
267 81 4 0 8.14705404477194 2.83452007844113 7.89640215807594
268 81 6 0 8.38705404477194 1.90452007844113 7.89640215807594
269 82 6 0 12.3932374692243 11.7324184374325 0.53232881706208
270 82 4 0 13.3532374692243 11.7324184374325 0.53232881706208
271 82 6 0 13.5932374692243 10.8024184374325 0.53232881706208
272 83 6 0 2.52804713367485 9.62751016410999 0.0357895425986499
273 83 4 0 3.48804713367485 9.62751016410999 0.0357895425986499
274 83 6 0 3.72804713367485 8.69751016410999 0.0357895425986499
275 84 6 0 8.64475159716792 8.80407452857122 6.9282212597318
276 84 4 0 9.60475159716792 8.80407452857122 6.9282212597318
277 84 6 0 9.84475159716792 7.87407452857122 6.9282212597318
278 85 6 0 11.9185283377022 9.4714536207635 5.24213144090027
279 85 4 0 12.8785283377022 9.4714536207635 5.24213144090027
280 85 6 0 13.1185283377022 8.5414536207635 5.24213144090027
281 86 6 0 6.70581994039938 5.6012429603748 10.0308118981775
282 86 4 0 7.66581994039938 5.6012429603748 10.0308118981775
283 86 6 0 7.90581994039938 4.6712429603748 10.0308118981775
284 87 6 0 3.32109979863279 14.827500580987 3.0186378734652
285 87 4 0 4.28109979863279 14.827500580987 3.0186378734652
286 87 6 0 4.52109979863279 13.897500580987 3.0186378734652
287 88 6 0 2.57044010024518 3.41297027928755 3.76015940099023
288 88 4 0 3.53044010024518 3.41297027928755 3.76015940099023
289 88 6 0 3.77044010024518 2.48297027928755 3.76015940099023
290 89 6 0 8.01067951994017 7.98530119395815 6.68300230870955
291 89 4 0 8.97067951994017 7.98530119395815 6.68300230870955
292 89 6 0 9.21067951994017 7.05530119395815 6.68300230870955
293 90 6 0 11.2142753710225 13.9009590846859 7.09699141094461
294 90 4 0 12.1742753710225 13.9009590846859 7.09699141094461
295 90 6 0 12.4142753710225 12.9709590846859 7.09699141094461
296 91 6 0 1.51065627389587 0.466228354899213 0.935175656341016
297 91 4 0 2.47065627389587 0.466228354899213 0.935175656341016
298 91 6 0 2.71065627389588 -0.463771645100787 0.935175656341016
299 92 6 0 13.8512086837739 5.01759541378356 4.68559417175129
300 92 4 0 14.8112086837739 5.01759541378356 4.68559417175129
301 92 6 0 15.0512086837739 4.08759541378357 4.68559417175129
302 93 6 0 6.1572619322408 11.9550190322939 9.9910425057169
303 93 4 0 7.1172619322408 11.9550190322939 9.9910425057169
304 93 6 0 7.3572619322408 11.0250190322939 9.9910425057169
305 94 6 0 6.16144096056931 13.1431158857327 3.8551574992016
306 94 4 0 7.12144096056931 13.1431158857327 3.8551574992016
307 94 6 0 7.36144096056931 12.2131158857327 3.8551574992016
308 95 6 0 0.0686372250504792 12.9107200346794 7.66374613624066
309 95 4 0 1.02863722505048 12.9107200346794 7.66374613624066
310 95 6 0 1.26863722505048 11.9807200346794 7.66374613624066
311 96 6 0 7.562563558314 7.63808363158256 6.12100188620389
312 96 4 0 8.522563558314 7.63808363158256 6.12100188620389
313 96 6 0 8.762563558314 6.70808363158256 6.12100188620389
314 97 6 0 6.99913183503784 9.87782492459752 9.19606715091504
315 97 4 0 7.95913183503784 9.87782492459752 9.19606715091504
316 97 6 0 8.19913183503784 8.94782492459752 9.19606715091504
317 98 6 0 7.39335508944467 5.13592114130966 10.4752629844006
318 98 4 0 8.35335508944467 5.13592114130966 10.4752629844006
319 98 6 0 8.59335508944467 4.20592114130966 10.4752629844006
320 99 6 0 9.00965450375341 5.21885535138659 11.5074954426382
321 99 4 0 9.96965450375341 5.21885535138659 11.5074954426382
322 99 6 0 10.2096545037534 4.28885535138659 11.5074954426382
323 100 6 0 13.9096042297035 1.47215546731837 6.82246944867074
324 100 4 0 14.8696042297035 1.47215546731837 6.82246944867074
325 100 6 0 15.1096042297035 0.542155467318371 6.82246944867074
326 101 6 0 2.89170461517759 6.81478751631454 1.47493049735203
327 101 4 0 3.85170461517759 6.81478751631454 1.47493049735203
328 101 6 0 4.09170461517759 5.88478751631454 1.47493049735203
329 102 6 0 7.5308917094674 10.0708470998239 13.5081623028964
330 102 4 0 8.4908917094674 10.0708470998239 13.5081623028964
331 102 6 0 8.7308917094674 9.14084709982388 13.5081623028964
332 103 6 0 1.2803241696395 11.3434834863897 6.25641321530566
333 103 4 0 2.2403241696395 11.3434834863897 6.25641321530566
334 103 6 0 2.4803241696395 10.4134834863897 6.25641321530566
335 104 6 0 12.7709984038677 11.2122559667937 5.27080705272965
336 104 4 0 13.7309984038677 11.2122559667937 5.27080705272965
337 104 6 0 13.9709984038677 10.2822559667937 5.27080705272965
338 105 6 0 5.70432441352867 6.44452781224623 7.45333667029627
339 105 4 0 6.66432441352867 6.44452781224623 7.45333667029627
340 105 6 0 6.90432441352867 5.51452781224623 7.45333667029627
341 106 6 0 0.461729607051238 2.75876338285394 3.80736899678595
342 106 4 0 1.42172960705124 2.75876338285394 3.80736899678595
343 106 6 0 1.66172960705124 1.82876338285394 3.80736899678595
344 107 6 0 2.50248229407705 9.60716304526664 0.383295309729874
345 107 4 0 3.46248229407705 9.60716304526664 0.383295309729874
346 107 6 0 3.70248229407705 8.67716304526664 0.383295309729874
347 108 6 0 1.52579431582242 7.37200151937082 0.692142352927476
348 108 4 0 2.48579431582242 7.37200151937082 0.692142352927476
349 108 6 0 2.72579431582242 6.44200151937082 0.692142352927476
350 109 6 0 10.6491994640976 2.61714745121077 0.847815738525242
351 109 4 0 11.6091994640976 2.61714745121077 0.847815738525242
352 109 6 0 11.8491994640976 1.68714745121077 0.847815738525242
353 110 6 0 13.6061845875531 12.5964533402026 4.82879459392279
354 110 4 0 14.5661845875531 12.5964533402026 4.82879459392279
355 110 6 0 14.8061845875531 11.6664533402026 4.82879459392279
356 111 6 0 8.55652161335573 8.85355648974888 9.60888270637952
357 111 4 0 9.51652161335573 8.85355648974888 9.60888270637952
358 111 6 0 9.75652161335573 7.92355648974888 9.60888270637952
359 112 6 0 11.6805066999234 8.17227060481906 12.6357282407116
360 112 4 0 12.6405066999234 8.17227060481906 12.6357282407116
361 112 6 0 12.8805066999234 7.24227060481906 12.6357282407116
362 113 6 0 4.33713870632462 5.44162686373107 5.27540807845071
363 113 4 0 5.29713870632462 5.44162686373107 5.27540807845071
364 113 6 0 5.53713870632462 4.51162686373107 5.27540807845071
365 114 6 0 7.38950182029046 8.07965845027007 9.25138638471253
366 114 4 0 8.34950182029046 8.07965845027007 9.25138638471253
367 114 6 0 8.58950182029046 7.14965845027007 9.25138638471253
368 115 6 0 3.7919211031124 11.9352895165235 14.6626920474228
369 115 4 0 4.7519211031124 11.9352895165235 14.6626920474228
370 115 6 0 4.9919211031124 11.0052895165235 14.6626920474228
371 116 6 0 -0.18543563855812 8.24214190518484 7.14419104275294
372 116 4 0 0.77456436144188 8.24214190518484 7.14419104275294
373 116 6 0 1.01456436144188 7.31214190518484 7.14419104275294
374 117 6 0 4.75988514765166 9.63640353799798 1.94139839150012
375 117 4 0 5.71988514765166 9.63640353799798 1.94139839150012
376 117 6 0 5.95988514765166 8.70640353799798 1.94139839150012
377 118 6 0 6.66288960652426 6.75237661617808 13.9587822323665
378 118 4 0 7.62288960652426 6.75237661617808 13.9587822323665
379 118 6 0 7.86288960652426 5.82237661617808 13.9587822323665
380 119 6 0 8.09259342539124 10.5974148811679 10.7021057722159
381 119 4 0 9.05259342539124 10.5974148811679 10.7021057722159
382 119 6 0 9.29259342539124 9.66741488116793 10.7021057722159
383 120 6 0 12.4045928525459 2.633154930491 6.36219864478335
384 120 4 0 13.3645928525459 2.633154930491 6.36219864478335
385 120 6 0 13.6045928525459 1.703154930491 6.36219864478335
386 121 6 0 1.94594066983089 6.01251016528346 3.101414720295
387 121 4 0 2.90594066983089 6.01251016528346 3.101414720295
388 121 6 0 3.14594066983089 5.08251016528346 3.101414720295
389 122 6 0 10.9486289396603 10.6005720367562 12.3600013100076
390 122 4 0 11.9086289396603 10.6005720367562 12.3600013100076
391 122 6 0 12.1486289396603 9.6705720367562 12.3600013100076
392 123 6 0 5.24964930184186 8.41075036599301 9.05169885372743
393 123 4 0 6.20964930184186 8.41075036599301 9.05169885372743
394 123 6 0 6.44964930184186 7.48075036599301 9.05169885372743
395 124 6 0 4.93981842926703 13.6642080840562 6.74862485728227
396 124 4 0 5.89981842926703 13.6642080840562 6.74862485728227
397 124 6 0 6.13981842926703 12.7342080840562 6.74862485728227
398 125 6 0 12.1536877930351 3.69236534036696 5.5629096168559
399 125 4 0 13.1136877930351 3.69236534036696 5.5629096168559
400 125 6 0 13.3536877930351 2.76236534036696 5.5629096168559
401 126 6 0 14.0072672213148 10.1156526749861 0.798892494058236
402 126 4 0 14.9672672213148 10.1156526749861 0.798892494058236
403 126 6 0 15.2072672213148 9.18565267498605 0.798892494058236
404 127 6 0 6.65421782920137 14.4055839061644 1.57007986446843
405 127 4 0 7.61421782920137 14.4055839061644 1.57007986446843
406 127 6 0 7.85421782920137 13.4755839061644 1.57007986446843
407 128 6 0 9.58820765881799 10.655633928664 4.1422843595501
408 128 4 0 10.548207658818 10.655633928664 4.1422843595501
409 128 6 0 10.788207658818 9.72563392866403 4.1422843595501
410 129 6 0 -0.523010072791949 5.51482625812292 6.56208108295687
411 129 4 0 0.436989927208051 5.51482625812292 6.56208108295687
412 129 6 0 0.676989927208051 4.58482625812292 6.56208108295687
413 130 6 0 12.1264664903004 12.9971693879366 6.21643506106921
414 130 4 0 13.0864664903004 12.9971693879366 6.21643506106921
415 130 6 0 13.3264664903004 12.0671693879366 6.21643506106921
416 131 6 0 3.42701645378955 12.4967316938005 5.97582133370452
417 131 4 0 4.38701645378955 12.4967316938005 5.97582133370452
418 131 6 0 4.62701645378955 11.5667316938005 5.97582133370452
419 132 6 0 9.3785352974385 6.82335358037613 1.90749039058574
420 132 4 0 10.3385352974385 6.82335358037613 1.90749039058574
421 132 6 0 10.5785352974385 5.89335358037613 1.90749039058574
422 133 6 0 5.79894714217633 5.64611837076023 8.08943402138539
423 133 4 0 6.75894714217633 5.64611837076023 8.08943402138539
424 133 6 0 6.99894714217633 4.71611837076023 8.08943402138539
425 134 6 0 4.42159310725518 14.0280046737194 14.752139209304
426 134 4 0 5.38159310725518 14.0280046737194 14.752139209304
427 134 6 0 5.62159310725518 13.0980046737194 14.752139209304
428 135 6 0 4.07959937394597 10.6305728100147 13.9061267115176
429 135 4 0 5.03959937394597 10.6305728100147 13.9061267115176
430 135 6 0 5.27959937394597 9.70057281001471 13.9061267115176
431 136 6 0 11.3826212302968 10.8329129793588 9.68751996173523
432 136 4 0 12.3426212302968 10.8329129793588 9.68751996173523
433 136 6 0 12.5826212302968 9.90291297935881 9.68751996173523
434 137 6 0 0.62652521694079 9.30313428672031 3.42302857199684
435 137 4 0 1.58652521694079 9.30313428672031 3.42302857199684
436 137 6 0 1.82652521694079 8.37313428672031 3.42302857199684
437 138 6 0 11.2397545301076 3.72585990739986 7.7477481868118
438 138 4 0 12.1997545301076 3.72585990739986 7.7477481868118
439 138 6 0 12.4397545301076 2.79585990739986 7.7477481868118
440 139 6 0 9.52284853599966 3.06975514901802 14.2961295309942
441 139 4 0 10.4828485359997 3.06975514901802 14.2961295309942
442 139 6 0 10.7228485359997 2.13975514901802 14.2961295309942
443 140 6 0 1.69715020383708 14.9610466327891 5.3916383930482
444 140 4 0 2.65715020383708 14.9610466327891 5.3916383930482
445 140 6 0 2.89715020383708 14.0310466327891 5.3916383930482
446 141 6 0 6.56747143875808 5.09387413779274 13.8190400612075
447 141 4 0 7.52747143875808 5.09387413779274 13.8190400612075
448 141 6 0 7.76747143875808 4.16387413779274 13.8190400612075
449 142 6 0 1.82663633415475 10.6469916486554 12.9070462938398
450 142 4 0 2.78663633415476 10.6469916486554 12.9070462938398
451 142 6 0 3.02663633415476 9.71699164865539 12.9070462938398
452 143 6 0 7.9059425827302 11.2368384857569 11.2888555414975
453 143 4 0 8.8659425827302 11.2368384857569 11.2888555414975
454 143 6 0 9.1059425827302 10.3068384857569 11.2888555414975
455 144 6 0 3.54947931409813 4.95263234985992 9.13521369919181
456 144 4 0 4.50947931409813 4.95263234985992 9.13521369919181
457 144 6 0 4.74947931409814 4.02263234985992 9.13521369919181
458 145 6 0 2.67762779767625 5.65547278424725 9.69434710219502
459 145 4 0 3.63762779767625 5.65547278424725 9.69434710219502
460 145 6 0 3.87762779767625 4.72547278424725 9.69434710219502
461 146 6 0 7.13719097242691 2.0661079422012 13.3529316843487
462 146 4 0 8.09719097242691 2.0661079422012 13.3529316843487
463 146 6 0 8.33719097242691 1.1361079422012 13.3529316843487
464 147 6 0 4.60530560041778 13.1149661021214 4.53138453187421
465 147 4 0 5.56530560041778 13.1149661021214 4.53138453187421
466 147 6 0 5.80530560041778 12.1849661021214 4.53138453187421
467 148 6 0 2.70768008820713 12.4513393784314 12.3570742621087
468 148 4 0 3.66768008820713 12.4513393784314 12.3570742621087
469 148 6 0 3.90768008820713 11.5213393784314 12.3570742621087
470 149 6 0 5.73771441282704 3.35262263700366 13.2964034657925
471 149 4 0 6.69771441282704 3.35262263700366 13.2964034657925
472 149 6 0 6.93771441282705 2.42262263700366 13.2964034657925
473 150 6 0 5.37547805506736 9.03810897533782 3.50971255567856
474 150 4 0 6.33547805506736 9.03810897533782 3.50971255567856
475 150 6 0 6.57547805506736 8.10810897533782 3.50971255567856