LAMMPS (29 Sep 2021 - Update 1)
# Test LAMMPS input file for single DeFDe

# Initialize simulation

clear

units real
atom_style full
boundary p p p
dielectric 1
special_bonds dreiding

bond_style harmonic
angle_style harmonic
dihedral_style harmonic
improper_style umbrella
pair_style hybrid/overlay hbond/dreiding/lj 4 9.0 11.0 90 lj/cut 8.50000

# Read data file
read_data frag5.dat
Reading data file ...
  triclinic box = (0.0000000 0.0000000 0.0000000) to (15.000000 15.000000 15.000000) with tilt (0.0000000 0.0000000 0.0000000)
  2 by 4 by 4 MPI processor grid
  reading atoms ...
  1528 atoms
  scanning bonds ...
  2 = max bonds/atom
  scanning angles ...
  6 = max angles/atom
  scanning dihedrals ...
  10 = max dihedrals/atom
  scanning impropers ...
  1 = max impropers/atom
  reading bonds ...
  1027 bonds
  reading angles ...
  549 angles
  reading dihedrals ...
  64 dihedrals
  reading impropers ...
  2 impropers
Finding 1-2 1-3 1-4 neighbors ...
  special bond factors lj:    0        0        1       
  special bond factors coul:  0        0        1       
     4 = max # of 1-2 neighbors
     6 = max # of 1-3 neighbors
    10 = max # of special neighbors
  special bonds CPU = 0.002 seconds
  read_data CPU = 0.018 seconds

# Dreiding potential information

bond_coeff 1 700 1.275
bond_coeff 2 350 1.375
bond_coeff 3 350 0.935
bond_coeff 4 350 1.43
bond_coeff 5 700 1.22
bond_coeff 6 350 1.53
bond_coeff 7 350 1.09
bond_coeff 8 350 1.42
bond_coeff 9 350 0.98

angle_coeff 1 50 120
angle_coeff 2 50 120
angle_coeff 3 50 109.471
angle_coeff 4 50 104.51

dihedral_coeff 1 5.625 -1 2
dihedral_coeff 2 0.0833333333333333 -1 6
dihedral_coeff 3 0.111111111111111 -1 3
dihedral_coeff 4 0.333333333333333 -1 3

improper_coeff 1 40 0

pair_coeff 1 1 lj/cut 0.0774 3.6621
pair_coeff 1 2 lj/cut 0.0857947550844456 3.77835472527395
pair_coeff 1 3 lj/cut 0.0857947550844456 3.77835472527395
pair_coeff 1 4 lj/cut 0.0860649754545948 3.53100349192691
pair_coeff 1 5 lj/cut 0.0860649754545948 3.53100349192691
pair_coeff 1 6 lj/cut 0.00278208554864871 3.41951536039831
pair_coeff 1 7 lj/cut 0.0342998542270955 3.42058613398347
pair_coeff 2 2 lj/cut 0.0951 3.8983
pair_coeff 2 3 lj/cut 0.0951 3.8983
pair_coeff 2 4 lj/cut 0.0953995283007206 3.64309650983885
pair_coeff 2 5 lj/cut 0.0953995283007206 3.64309650983885
pair_coeff 2 6 lj/cut 0.00308382878902186 3.52806914614779
pair_coeff 2 7 lj/cut 0.0380199947396104 3.52917391183829
pair_coeff 3 3 lj/cut 0.0951 3.8983
pair_coeff 3 4 lj/cut 0.0953995283007206 3.64309650983885
pair_coeff 3 5 lj/cut 0.0953995283007206 3.64309650983885
pair_coeff 3 6 lj/cut 0.00308382878902186 3.52806914614779
pair_coeff 3 7 lj/cut 0.0380199947396104 3.52917391183829
pair_coeff 4 4 lj/cut 0.0957 3.4046
pair_coeff 4 5 lj/cut 0.0957 3.4046
pair_coeff 4 6 lj/cut 0.0030935416596516 3.29710294046152
pair_coeff 4 7 lj/cut 0.0381397430510485 3.29813538230316
pair_coeff 5 5 lj/cut 0.0957 3.4046
pair_coeff 5 6 lj/cut 0.0030935416596516 3.29710294046152
pair_coeff 5 7 lj/cut 0.0381397430510485 3.29813538230316
pair_coeff 6 6 lj/cut 1e-04 3.193
pair_coeff 6 7 lj/cut 0.0012328828005938 3.19399984345648
pair_coeff 7 7 lj/cut 0.0152 3.195
pair_coeff 1 1 hbond/dreiding/lj 6 j 9.50 2.75 4 9.0 11.0 90
pair_coeff 1 4 hbond/dreiding/lj 6 i 9.50 2.75 4 9.0 11.0 90
pair_coeff 1 5 hbond/dreiding/lj 6 i 9.50 2.75 4 9.0 11.0 90
pair_coeff 1 4 hbond/dreiding/lj 6 j 9.50 2.75 4 9.0 11.0 90
pair_coeff 4 4 hbond/dreiding/lj 6 j 9.50 2.75 4 9.0 11.0 90
pair_coeff 4 5 hbond/dreiding/lj 6 i 9.50 2.75 4 9.0 11.0 90

neighbor 2 bin
neigh_modify every 2 one 10000

# Gemoetric relaxation
fix 1 all box/relax iso 1.0 vmax 0.001
minimize 1.0e-4 1.0e-6 10000 10000
WARNING: Using 'neigh_modify every 1 delay 0 check yes' setting during minimization (../min.cpp:188)
Neighbor list info ...
  update every 1 steps, delay 0 steps, check yes
  max neighbors/atom: 10000, page size: 100000
  master list distance cutoff = 13
  ghost atom cutoff = 13
  binsize = 6.5, bins = 3 3 3
  3 neighbor lists, perpetual/occasional/extra = 3 0 0
  (1) pair hbond/dreiding/lj, perpetual, skip from (3)
      attributes: full, newton on
      pair build: skip
      stencil: none
      bin: none
  (2) pair lj/cut, perpetual, half/full from (3)
      attributes: half, newton on
      pair build: halffull/newton
      stencil: none
      bin: none
  (3) neighbor class addition, perpetual
      attributes: full, newton on
      pair build: full/bin
      stencil: full/bin/3d
      bin: standard
Per MPI rank memory allocation (min/avg/max) = 14.53 | 14.91 | 15.32 Mbytes
Step Temp E_pair E_mol TotEng Press Volume 
       0            0 2.7685602e+18    222.63578 2.7685602e+18 2.2499056e+20         3375 
    5620            0   -1175.9273    80.976023   -1094.9513    128.99146    34340.171 
Loop time of 5.0465 on 32 procs for 5620 steps with 1528 atoms

100.0% CPU use with 32 MPI tasks x no OpenMP threads

Minimization stats:
  Stopping criterion = energy tolerance
  Energy initial, next-to-last, final = 
    2.76856017508777e+18  -1094.41969122863  -1094.49966066988
  Force two-norm initial, final = 6.3682901e+20 114.93137
  Force max component initial, final = 3.2107599e+20 88.743733
  Final line search alpha, max atom move = 1.6963788e-05 0.0015054298
  Iterations, force evaluations = 5620 5625

MPI task timing breakdown:
Section |  min time  |  avg time  |  max time  |%varavg| %total
---------------------------------------------------------------
Pair    | 1.3        | 2.7787     | 4.2908     |  44.5 | 55.06
Bond    | 0.0064867  | 0.012694   | 0.027239   |   3.7 |  0.25
Neigh   | 0.088909   | 0.089194   | 0.089475   |   0.1 |  1.77
Comm    | 0.28184    | 1.7948     | 3.2664     |  55.4 | 35.57
Output  | 0          | 0          | 0          |   0.0 |  0.00
Modify  | 0          | 0          | 0          |   0.0 |  0.00
Other   |            | 0.3711     |            |       |  7.35

Nlocal:        47.7500 ave          65 max          27 min
Histogram: 3 0 2 4 3 5 4 7 2 2
Nghost:        2122.53 ave        2170 max        2062 min
Histogram: 4 2 1 5 2 2 2 3 5 6
Neighs:        5581.03 ave        8458 max        2835 min
Histogram: 3 2 3 5 2 7 5 1 0 4

Total # of neighbors = 178593
Ave neighs/atom = 116.88024
Ave special neighs/atom = 2.0628272
Neighbor list builds = 87
Dangerous builds = 0

# MD simulation
velocity all create 300.0 12345 rot yes dist gaussian
timestep 1.0
fix 2 all nvt temp 300.0 300.0 1

# Compute interaction energy
group WAT molecule <> 2 501
1500 atoms in group WAT
group MOL molecule 1
28 atoms in group MOL

compute w WAT group/group MOL pair yes
fix 3 all ave/time 10 5 100 c_w file outa

# Outputs
thermo 100 # Output thermodynamic data every nth step
#dump mf1 all xyz 10000 mol_*.xyz

# Run
run 1000000
Neighbor list info ...
  update every 2 steps, delay 10 steps, check yes
  max neighbors/atom: 10000, page size: 100000
  master list distance cutoff = 13
  ghost atom cutoff = 13
  binsize = 6.5, bins = 6 6 6
  4 neighbor lists, perpetual/occasional/extra = 3 1 0
  (1) pair hbond/dreiding/lj, perpetual, skip from (4)
      attributes: full, newton on
      pair build: skip
      stencil: none
      bin: none
  (2) pair lj/cut, perpetual, half/full from (4)
      attributes: half, newton on
      pair build: halffull/newton
      stencil: none
      bin: none
  (3) compute group/group, occasional, copy from (2)
      attributes: half, newton on
      pair build: copy
      stencil: none
      bin: none
  (4) neighbor class addition, perpetual
      attributes: full, newton on
      pair build: full/bin
      stencil: full/bin/3d
      bin: standard
Per MPI rank memory allocation (min/avg/max) = 13.37 | 13.45 | 13.94 Mbytes
Step Temp E_pair E_mol TotEng Press Volume 
    5620          300   -1175.9273    80.976023    270.55783    1946.7031    34340.171 
    5700    301.18988   -1134.9018    171.54392    407.56718     1844.615    34340.171 
    5800    305.05878   -1186.4441    231.20998    433.30102    686.56725    34340.171 
    5900    310.82461   -1191.3289    207.90768    431.35825    735.58129    34340.171 
    6000    293.07963   -1187.9303    207.66936    353.74868    386.11685    34340.171 
    6100    294.31771   -1191.1153    220.18324    368.71296     860.8548    34340.171 
    6200    302.19453    -1212.182    213.93662    377.25252    961.28486    34340.171 
    6300    311.01216   -1186.2343    221.53628     450.9351    390.37235    34340.171 
    6400    302.16879    -1217.761    213.53699    371.15673    265.88754    34340.171 
    6500    297.55304   -1199.3481    218.81681    373.83995   -19.445298    34340.171 
    6600    292.36794   -1178.0356    222.48104    375.21568    217.03235    34340.171 
    6700    292.49311   -1177.8374     228.9355    382.43805    215.66602    34340.171 
    6800    302.29187   -1144.6857    228.32362    459.57892    974.35092    34340.171 
    6900    314.67822   -1133.5105     235.2555    534.06483    615.28526    34340.171 
    7000    303.01331   -1126.4168    224.14369    476.95169    782.06135    34340.171 
    7100     297.0095   -1120.8189    232.09176    463.17007     110.5389    34340.171 
    7200    292.99117   -1086.6044    264.76294    511.76555    243.42363    34340.171 
    7300    292.20477   -1133.3015    225.04942    421.77549    246.70878    34340.171 
    7400    292.35415   -1171.2022    243.23577    402.74101    450.90105    34340.171 
    7500     297.2327    -1153.185    248.95972    448.68789    283.48758    34340.171 
    7600    301.15684   -1132.7398    252.36485    490.39972    212.69814    34340.171 
    7700    295.82629   -1127.7804     245.5399    464.27114    658.81423    34340.171 
    7800    304.91132   -1162.6029    242.28326    467.54426     936.6247    34340.171 
    7900      295.188   -1161.5106    228.97191    411.06766     752.1399    34340.171 
    8000    304.12195   -1137.8188    266.40835    512.86049     815.3458    34340.171 
    8100    307.47255   -1069.8076     258.5535    588.26778    561.35617    34340.171 
    8200    294.14182   -1142.2157    247.75702    444.38573    301.90973    34340.171 
    8300    299.75509   -1179.8621     267.4613    451.99356    703.78907    34340.171 
    8400     289.2843   -1170.6949     260.6276    406.66715    -3.992245    34340.171 
    8500     302.1439   -1144.2791    265.29431     496.2827    447.91986    34340.171 
    8600    289.77367   -1227.8238    256.35129    347.48943    553.91846    34340.171 
    8700    292.08377   -1161.4134    264.51154    432.57496    386.10127    34340.171 
    8800    296.56058   -1171.1042     263.8777    442.62738    602.03568    34340.171 
    8900    308.59687   -1154.3183    257.85504    508.17618    567.28984    34340.171 
    9000     302.5415   -1132.5462    247.60948    492.14056    129.29877    34340.171 
    9100    299.56538   -1160.5551    271.52862    474.50436    347.88928    34340.171 
    9200    300.64796   -1188.3124    246.46129    426.60734    265.20085    34340.171 
    9300    297.92814   -1165.6501    271.47669    461.90516    101.76593    34340.171 
    9400     287.8546   -1225.1915    251.66612    336.70148    -225.8223    34340.171 
    9500    302.56123    -1200.858    272.63243    448.94144    376.03872    34340.171 
    9600    295.57263   -1202.4001    254.46667    397.42358    108.32042    34340.171 
    9700    302.81502   -1162.3026    268.79027    484.80983    324.50774    34340.171 
    9800    293.12729   -1162.8609    263.53342    434.89911    300.59383    34340.171 
    9900    306.98975   -1172.9374    267.96822     492.3551    437.46844    34340.171 
   10000    289.90569    -1141.344    279.75768    457.97653   -83.128869    34340.171 
   10100    296.26604   -1165.4159    269.25161    452.34893    617.94585    34340.171 
   10200    302.95795   -1218.0322    276.66077    437.60134     1030.807    34340.171 
   10300    306.73105   -1216.3613    274.27964    454.06517    370.35771    34340.171 
   10400    297.70754   -1139.8561    276.88214    492.10048    390.04436    34340.171 
   10500    296.85452   -1154.5863    289.12057     485.7261    336.11229    34340.171 
   10600    307.27168   -1178.9154    272.33972    492.03189    29.161712    34340.171 
   10700     305.2066   -1188.4402    280.55629    481.32402    133.96835    34340.171 
   10800    304.40179   -1203.9112    272.31282    453.94629    90.737402    34340.171 
   10900    299.03706   -1176.7428    275.69218    460.07546   -114.47576    34340.171 
   11000    310.41053   -1148.3359    277.76329    542.32205    587.59625    34340.171 
   11100    289.46751    -1189.048    290.07431     418.5947    80.293912    34340.171 
   11200    310.14959   -1223.7931    279.51617    467.43005    936.80748    34340.171 
   11300     293.8552    -1204.899    281.31956     413.9604    184.02953    34340.171 
   11400    302.38952   -1207.5379    286.51839    455.36593    558.85873    34340.171 
   11500    308.15235   -1254.6383    280.57838    428.55624    732.45944    34340.171 
   11600    292.19081   -1202.4221    277.15069    404.69259   -209.99328    34340.171 
   11700    271.02406   -1206.9986    274.65057    301.27134   -154.48324    34340.171 
   11800    311.28387   -1211.9757     288.1352    493.02938    383.17212    34340.171 
   11900    304.60783     -1192.24     280.4405    474.68307    482.06413    34340.171 
   12000    303.06659    -1217.104     298.3989    460.76211    74.446789    34340.171 
   12100    291.64448   -1197.6063     301.2985    431.16951  -0.40716065    34340.171 
   12200    305.70323   -1167.3204    295.86936     520.0174    902.52109    34340.171 
   12300    304.20257    -1219.269    299.56665    464.93561    570.24996    34340.171 
   12400    297.00652   -1222.7068    290.56961    419.74646    210.23522    34340.171 
   12500    295.45125   -1246.9206    302.62969    400.51371    207.64696    34340.171 
   12600    306.25531   -1236.2849    305.34394    463.04041    796.77569    34340.171 
   12700    304.78047   -1264.0256    296.51148    419.75425    405.42144    34340.171 
   12800    295.94932   -1240.7646    312.43738    418.74438    26.099384    34340.171 
   12900     297.6592   -1266.4337    300.21946    388.64022    399.57634    34340.171 
   13000    303.59161   -1203.5813    331.84493    510.12067    913.42639    34340.171 
   13100    300.09231   -1194.2103    303.83911    475.55804    568.49149    34340.171 
   13200    303.26383   -1232.4229     313.5909    461.53304    671.04247    34340.171 
   13300    303.05884   -1201.9881     310.4678    487.91171    219.36273    34340.171 
   13400    307.42722   -1211.8819    320.47725    507.91089    503.91373    34340.171 
   13500    302.13246    -1200.868    306.69627     481.0437    196.85482    34340.171 
   13600    304.07242   -1229.3564    315.59586    470.28496    199.36491    34340.171 
   13700    294.34778   -1269.5845    318.37611    388.57352    623.26509    34340.171 
   13800    289.53474   -1249.6735    310.21085    378.41174    51.969223    34340.171 
   13900    296.00404   -1228.0716    303.86215    423.11125   -51.150732    34340.171 
   14000    309.81008   -1233.2139    314.43924    491.38697    202.19606    34340.171 
   14100    303.03231   -1224.9321    308.33799    462.71719    303.91871    34340.171 
   14200    308.74934   -1246.3897    310.91748    469.86124    470.47327    34340.171 
   14300    299.30149   -1232.7293    308.93663    438.53701    111.99397    34340.171 
   14400    285.06589   -1261.5196    337.24193    373.25593    196.86895    34340.171 
   14500    295.35508    -1281.179    301.35621    364.54403   -213.57584    34340.171 
   14600    291.90071   -1245.6507    330.12899    413.12191    370.48433    34340.171 
   14700    303.74073   -1165.9027    312.52946    529.16249     606.4143    34340.171 
   14800    305.04167   -1192.2694    311.89694    508.08481     289.4607    34340.171 
   14900     303.5881   -1232.5059    302.72919    452.06434   -198.25231    34340.171 
   15000    298.04007   -1239.9679    331.49371    448.11392    75.069948    34340.171 
   15100    298.82304   -1255.7104    323.06505    427.50656    313.84157    34340.171 
   15200    321.05445   -1222.9302    304.42714    542.83947    366.70685    34340.171 
   15300    310.75584   -1247.3166     315.8054    482.95519   -122.71484    34340.171 
   15400    299.89209   -1231.7983    327.48761     460.7072   -106.91269    34340.171 
   15500    296.72956   -1222.5944    329.69693    457.72554    9.9259025    34340.171 
   15600    293.07364   -1236.8372     315.4325    412.57766   -69.975384    34340.171 
   15700    285.38953   -1221.4209    317.15787     394.7436   -114.30439    34340.171 
   15800    302.67112   -1175.9041    322.60352    524.36665    3.9111621    34340.171 
   15900    295.53342   -1210.7589    333.81463    468.23434    36.546108    34340.171 
   16000    296.74508   -1227.7265    331.24379    454.21093    208.37697    34340.171 
   16100    308.41828   -1233.6372    344.34412    514.53349    194.06188    34340.171 
   16200    286.53175   -1246.3481    344.92053    402.77818   -615.88009    34340.171 
   16300    307.86321   -1271.9143    321.84379    451.22945   -33.038573    34340.171 
   16400    307.31853   -1276.3385    313.85862    436.34094    334.79452    34340.171 
   16500     293.8547   -1257.3163    330.50849    410.72977    456.46736    34340.171 
   16600    294.84184   -1218.9361    338.15667    461.25128   -111.94554    34340.171 
   16700    298.12656   -1246.1454    328.92015    439.75644    54.599432    34340.171 
   16800    285.48745   -1230.2098    325.88709    395.12963    -29.58576    34340.171 
   16900    297.17536   -1268.7093     336.3478    420.29064    549.83936    34340.171 
   17000    300.07469   -1298.0785    326.15653    393.92709    961.94533    34340.171 
   17100    300.17718   -1263.2536    325.36332    428.42527    898.13275    34340.171 
   17200    311.67199   -1247.0172    329.36444    500.98369     926.7421    34340.171 
   17300    307.74325   -1319.4938    332.46314    413.72335    382.27171    34340.171 
   17400    300.46554   -1319.1758    335.27882    383.73114     968.7343    34340.171 
   17500    296.05586   -1285.6195    339.98254    401.91957    207.81258    34340.171 
   17600    302.36637   -1292.9654    349.01248    432.32719    -279.6286    34340.171 
   17700    310.23295   -1246.6586    330.83329     496.2611    478.09906    34340.171 
   17800    309.68058   -1223.0214    342.06509    528.61578    674.60245    34340.171 
   17900    307.54369   -1264.9943    334.54709    469.39844    302.09916    34340.171 
   18000    304.92783   -1263.9233     360.4849    484.50062    638.90759    34340.171 
   18100    302.72336   -1244.4032    331.97867    465.48052    406.25058    34340.171 
   18200    302.13718   -1274.1524    330.63751      431.722    250.60319    34340.171 
   18300    310.77931   -1291.5805    330.87944    453.87225    793.89075    34340.171 
   18400    295.78587   -1238.1157    335.55416    443.76606     333.2865    34340.171 
   18500    304.57562   -1240.8034    345.17574    490.70824    1215.8998    34340.171 
   18600     308.1737   -1206.2493    346.90434    543.36836    432.78114    34340.171 
   18700     296.2737   -1179.4053    338.19879    507.34157    820.93333    34340.171 
   18800    299.43557   -1202.5765    345.06864    505.43212    310.90889    34340.171 
   18900    306.95703   -1225.4227    373.99052    545.74321    34.515239    34340.171 
   19000    295.15831   -1264.8009    345.63328    424.30353    220.81994    34340.171 
   19100    307.34748   -1277.6733    346.10171    467.38102    761.27674    34340.171 
   19200    301.84922   -1287.7436     344.9218    431.10438    169.39345    34340.171 
   19300    307.01524   -1277.8545    333.26055    452.84641    446.43859    34340.171 
   19400    303.66864   -1270.5132    359.62176    471.31615    278.94429    34340.171 
   19500    299.56682   -1264.4945    355.58042    454.62325    282.48216    34340.171 
   19600    302.87441   -1285.1492    358.29757    451.74085     442.2767    34340.171 
   19700    300.78129   -1246.8769    353.42406     475.6124   -267.50718    34340.171 
   19800    301.77165   -1222.6007    335.09809    486.07051   -184.29137    34340.171 
   19900    302.54213   -1287.0372    330.63536    420.67822   -354.10607    34340.171 
   20000    307.44665   -1266.1506    350.44031    483.69371   -161.96465    34340.171 
   20100      296.674   -1255.7975     357.4567    452.02928   -473.27369    34340.171 
   20200    305.79034   -1242.7344    337.87657    487.00712   -211.15993    34340.171 
   20300    302.53634   -1268.7099    351.22979    459.57356   -277.82876    34340.171 
   20400    260.71962    -1285.184    357.93281    259.46553   -426.56819    34340.171 
   20500    308.95839   -1320.4829    335.97106    421.77314   -115.41435    34340.171 
   20600    305.37763   -1310.3896    348.75064    428.34746   -118.13543    34340.171 
   20700    296.39659   -1226.4358    359.81632    482.48793    232.65069    34340.171 
   20800    310.81151   -1223.8364    354.87449     545.7579    332.75502    34340.171 
   20900    297.06223   -1237.4055    353.42764    468.15942    452.49319    34340.171 
   21000    292.84971   -1216.7648    344.19592     460.3942    1152.2759    34340.171 
   21100    307.32557   -1241.8003    363.41114    520.46371    724.98841    34340.171 
   21200    293.77445   -1223.7631     360.3473    473.75642    31.858283    34340.171 
   21300    307.91245    -1245.545    363.65367    519.63287    560.09447    34340.171 
   21400     303.4034   -1291.8176    356.43749    445.62017    38.503121    34340.171 
   21500    297.87981   -1236.4959       353.21    472.57268   -161.94884    34340.171 
   21600    302.94349    -1258.908    349.26171     469.2607   -123.42201    34340.171 
   21700    307.40598   -1278.7667    347.42587    467.87804    -125.0429    34340.171 
   21800    305.50787    -1308.732    362.47715    444.32438   -79.462104    34340.171 
   21900    301.39819   -1294.5525    375.33292    452.65362     -159.685    34340.171 
   22000    293.16316   -1240.8789    371.53023     465.0412    235.19972    34340.171 
   22100    291.73882   -1293.2611    365.13758     399.7832    3.9952197    34340.171 
   22200    294.39312   -1236.1348    370.56661    474.42009    -242.1392    34340.171 
   22300    307.32256   -1245.6163    373.66085    526.88375    36.971138    34340.171 
   22400    306.76837   -1278.7946    373.92331    491.44542   -204.96777    34340.171 
   22500     304.4864   -1250.6132    359.25613    494.57278   -73.869456    34340.171 
   22600    308.14146   -1264.1427    358.29345    496.71731    281.60723    34340.171 
   22700     308.3074   -1286.0445     359.7378    477.01517    16.820104    34340.171 
   22800    298.34491   -1300.8806    384.60933    441.70438   -92.291958    34340.171 
   22900    304.49545   -1260.4162    381.11202    506.66677    198.74525    34340.171 
   23000    297.22768    -1212.623     378.4717    518.73899    157.07536    34340.171 
   23100     310.7414   -1273.4063    386.55802    527.55237    248.97188    34340.171 
   23200    306.59308   -1242.2391    395.91676    549.19642    216.34314    34340.171 
   23300    296.50326   -1258.2777    385.85165    477.16695   -303.64574    34340.171 
   23400    306.43101   -1253.9385    376.43529    517.27788   -659.00038    34340.171 
   23500    298.40489   -1289.1281    375.94094    445.06152    536.86455    34340.171 
   23600    305.17133    -1261.206    398.09488    525.93627    396.20637    34340.171 
   23700    302.80141   -1211.7613    363.27352     529.7725    713.29615    34340.171 
   23800    303.65449   -1276.9891    367.67701    472.83115    357.75774    34340.171 
   23900    307.15246   -1279.7767    395.73947    514.02766    110.65965    34340.171 
   24000    303.70609   -1297.2362     393.7702    478.91205    213.92397    34340.171 
   24100    309.18591   -1275.5185    376.01351    507.81557   -98.696334    34340.171 
   24200    304.00897   -1329.2995    377.03315     431.4904    188.81713    34340.171 
   24300     299.5302   -1322.3914    387.99889    428.97817   -89.719423    34340.171 
   24400    296.76588   -1320.3484    381.74164    412.18155    688.69629    34340.171 
   24500    301.28792   -1319.4551    375.00727    426.92348    98.279246    34340.171 
   24600    294.45727   -1313.3759    373.87094    400.77532    389.83377    34340.171 
   24700    304.95005    -1301.736    386.06373    472.36794    207.49985    34340.171 
   24800    312.28942   -1320.0914    384.54455    485.89999    592.43118    34340.171 
   24900     288.0704   -1295.9743    375.75389    390.98875    664.97257    34340.171 
   25000     305.2128   -1316.7399    372.77625    445.27246    1141.8381    34340.171 
   25100    300.24956    -1297.362    394.26203    463.54506    437.80721    34340.171 
   25200    301.92545    -1261.625     404.3512    516.99936    316.50025    34340.171 
   25300    292.94894   -1280.8684     400.5919    453.13828    71.745558    34340.171 
   25400    305.87532   -1313.0397    388.82361    468.03565    218.14973    34340.171 
   25500    305.65705   -1268.5059     392.7846    515.53696    780.60446    34340.171 
   25600    302.66385   -1289.8963    396.87684    484.61467    679.69526    34340.171 
   25700    289.64558   -1282.2737    389.62376    425.72898    155.67092    34340.171 
   25800    295.29053   -1294.6472    398.39794    447.82374    425.09981    34340.171 
   25900    297.45412   -1320.2745    373.51351    407.15997     257.4408    34340.171 
   26000    296.35879   -1281.4278    384.72911     452.2367    940.66372    34340.171 
   26100     302.7595   -1340.8628    376.47152    413.67824    742.84634    34340.171 
   26200    305.27677    -1347.888    399.11719    440.75649    550.23612    34340.171 
   26300    301.80261   -1293.0246    394.43914    475.12856    236.01767    34340.171 
   26400    299.82623   -1308.6021    389.62313    445.73914   -314.95882    34340.171 
   26500    298.52044    -1307.096    398.02174    449.70031    228.13817    34340.171 
   26600    294.24712   -1319.0781    370.59374    390.83934   -121.33943    34340.171 
   26700    292.95553   -1319.6989    381.89625    395.64216   -48.423832    34340.171 
   26800    298.93461   -1334.0406    383.27466    409.89385    80.173187    34340.171 
   26900    308.52525   -1354.4273    398.03919    447.92531   -9.1751863    34340.171 
   27000    299.69289   -1394.3881    390.29178     360.0149   -271.52307    34340.171 
   27100    298.13523   -1330.4949    372.55343    399.07975   -276.33401    34340.171 
   27200    301.82544   -1313.1544      374.896    435.55955   -387.21931    34340.171 
   27300    291.26957   -1317.4295    398.34647    406.68783   -599.22599    34340.171 
   27400    310.29782   -1400.5928    384.22798    396.01682    329.91881    34340.171 
   27500    309.32464   -1347.7645    404.45008    464.63762     988.7511    34340.171 
   27600    285.31341   -1405.3686    400.58024    293.87184    364.15938    34340.171 
   27700    298.81661   -1327.4342    408.51415     441.2026     812.2428    34340.171 
   27800    297.37642    -1343.078    399.77481    410.26417    1102.3128    34340.171 
   27900    294.58075    -1331.196    389.01738    398.66369    1096.0658    34340.171 
   28000    303.04585   -1323.8645    389.85243    445.36077     1046.658    34340.171 
   28100    295.29376   -1332.4777    396.17108    407.78109    407.86492    34340.171 
   28200    298.96026   -1361.3541    389.57971    389.00213    274.69571    34340.171 
   28300    294.08096   -1301.9495    387.12484    423.74273    595.96011    34340.171 
   28400    313.03874   -1297.4801    405.13694     532.5143     300.7526    34340.171 
   28500    299.97478   -1313.9563    378.84992    430.28797    193.29545    34340.171 
   28600    307.43639     -1341.81    381.15854    438.70576    617.00773    34340.171 
   28700    295.37665   -1355.2001    402.18778    391.45268    244.20197    34340.171 
   28800    299.55626   -1335.7719    408.44989    436.16733    209.51503    34340.171 
   28900    303.23451   -1316.9885    399.72098    462.96406    412.54063    34340.171 
   29000    298.93191   -1292.6797    403.75154    471.71933    691.53538    34340.171 
   29100    285.29377   -1290.2234    430.35166    438.69906   -73.644441    34340.171 
   29200    301.26516   -1298.1471    383.60244    456.72306   -298.10413    34340.171 
   29300    296.72406    -1301.217    409.08256    458.46352   -107.06688    34340.171 
   29400    296.04365   -1289.0854    403.37085    461.78641    436.70581    34340.171 
   29500    293.17171   -1317.4594    410.25854    427.22791    238.65929    34340.171 
   29600    297.63902   -1295.3413     388.1858    447.60708    700.55146    34340.171 
   29700    302.20402     -1283.69    407.97033    499.82145    542.58485    34340.171 
   29800    296.28126   -1293.8122    414.03414    468.80441    156.21252    34340.171 
   29900    294.29129   -1259.0734     401.7335    482.18488    22.218385    34340.171 
   30000    300.18166   -1269.4876    397.37356    494.22188    406.43049    34340.171 
   30100    294.98086   -1316.6542    413.75635    439.76558    639.29945    34340.171 
   30200    301.90517    -1338.699    383.27072    418.75254    174.20162    34340.171 
   30300    307.44821   -1288.4755     400.3248    511.26035    626.19228    34340.171 
   30400    287.50013   -1300.8191    419.37878    427.17309    43.512132    34340.171 
   30500    299.98516   -1279.5737    409.62236    495.49015    32.101546    34340.171 
   30600    296.32402   -1278.5657     415.1665      485.378   -249.93514    34340.171 
   30700    297.60695   -1317.8741    419.96352    456.70611    -242.7743    34340.171 
   30800     302.1642   -1347.4902    419.60645    447.47613    238.12242    34340.171 
   30900    295.44378   -1346.4909    400.04412    398.32374    734.37308    34340.171 
   31000    299.11461   -1326.6297    417.39157     452.2409    466.07049    34340.171 
   31100    295.06377   -1271.5503    399.45001    470.94058    410.61623    34340.171 
   31200    301.29069   -1261.5301    425.43756    535.29136    274.52644    34340.171 
   31300    298.28662   -1290.2187      402.968    470.45959   -338.61757    34340.171 
   31400    296.48755   -1291.7415    393.08298    450.86293    29.107132    34340.171 
   31500    299.05321   -1282.0564    419.46772    498.61088   -162.68091    34340.171 
   31600     299.9103   -1297.0654    417.33146    485.36685    422.85004    34340.171 
   31700    300.70755   -1325.0993    407.33951    450.96987   -99.612772    34340.171 
   31800    301.35316   -1347.5501    398.93883    423.05698    221.84954    34340.171 
   31900    295.70174   -1337.7889    409.50082     417.6566    178.16788    34340.171 
   32000    302.83571   -1340.3876    423.73923    461.76799    261.72705    34340.171 
   32100    303.40813   -1325.9265    419.78926    474.88459    521.18116    34340.171 
   32200    298.00587    -1370.104    409.47248    395.80088    696.52382    34340.171 
   32300    301.44006   -1362.0515    409.91462    419.92688    185.60596    34340.171 
   32400    296.95438   -1407.0979    408.42449    352.97296    143.04132    34340.171 
   32500    311.08622   -1410.2523    401.54149     407.2594    285.35501    34340.171 
   32600    300.69647   -1351.5831    413.60267    430.69881   -16.588288    34340.171 
   32700    303.13847   -1377.2516    424.17506     426.7179   -10.857382    34340.171 
   32800    308.44244    -1339.148    434.63701    499.42558     56.02372    34340.171 
   32900    300.90619   -1313.3564    422.12476    478.40214   -22.775161    34340.171 
   33000     299.7474    -1316.377    411.92049    459.90281    382.96878    34340.171 
   33100    298.58219   -1328.5443    431.91559     462.4269    198.45656    34340.171 
   33200    305.84619   -1306.6225    421.28041    506.77703   -159.61266    34340.171 
   33300    299.18152   -1271.7429    418.79696    508.83769    -154.3809    34340.171 
   33400    309.77852   -1275.0224    423.34879    558.34439   -306.80084    34340.171 
   33500    294.42945    -1307.658     421.5353    454.03092   -498.15068    34340.171 
   33600    308.74659   -1286.4568    435.67241    554.53645    -183.4984    34340.171 
   33700    301.36307   -1318.3456    413.62366    466.99143   -407.38288    34340.171 
   33800     291.4856   -1305.4981    416.83758    438.09354    107.01684    34340.171 
   33900     298.9182   -1304.8298    436.68115    492.43638    159.27271    34340.171 
   34000    299.14012   -1351.1892    416.10062    426.50664     -496.267    34340.171 
   34100    298.66753   -1348.3638    438.58226    449.66255   -458.40513    34340.171 
   34200    316.86743    -1341.303    424.30619    525.28767   -119.54619    34340.171 
   34300    308.84904   -1352.3691    419.97479    473.39289   -136.04921    34340.171 
   34400    298.51821   -1346.4955    448.65143    460.92039    -599.2584    34340.171 
   34500    300.62904   -1342.7976    433.76027    459.33494   -311.05325    34340.171 
   34600     315.2397   -1356.1574     426.7257     505.4439   -380.75062    34340.171 
   34700    298.95164   -1368.1324    425.67632    418.28121   -46.552211    34340.171 
   34800    309.11713   -1404.0394    405.44976    408.41789    179.58245    34340.171 
   34900    294.74646   -1373.2631    412.64841    380.98186    160.27439    34340.171 
   35000    293.63056   -1370.3184    425.23953    391.43848    2.7070561    34340.171 
   35100     303.9984   -1375.9511    415.38882    423.14627   -335.86398    34340.171 
   35200    290.96547   -1404.5211     431.6892    351.55474   -74.709955    34340.171 
   35300     304.9006   -1403.7974    431.09695    415.11473   -140.99283    34340.171 
   35400     307.7586   -1370.3774      432.169    462.61551    568.62433    34340.171 
   35500    296.53275   -1353.7015    433.47825    429.50393    39.190158    34340.171 
   35600    300.48681   -1356.1308    436.78084    448.37491    1052.1938    34340.171 
   35700    293.71942   -1335.5139    431.42805    432.83591    1225.1589    34340.171 
   35800    297.62558   -1299.9828    425.34545    480.06405    114.29342    34340.171 
   35900    313.41805   -1291.1662    418.88254    554.30031    816.93862    34340.171 
   36000    299.50567   -1341.5478    447.13965    468.85091    575.28172    34340.171 
   36100      307.871   -1321.1799    424.13425    504.28979    442.71849    34340.171 
   36200    288.47779   -1308.9459     396.6543    400.77188    0.8992637    34340.171 
   36300    290.96627   -1330.4868    428.79579    422.69925    160.51623    34340.171 
   36400     301.3251   -1336.3852    410.17705    445.33237   -306.59452    34340.171 
   36500     294.5021   -1328.4285    431.06427    443.12002   -210.77304    34340.171 
   36600    299.37335   -1342.4097     421.4508    441.69788   -396.70995    34340.171 
   36700     304.6444   -1326.4253    446.21744    506.44108    442.80501    34340.171 
   36800     294.1972   -1338.7097    417.10209    417.48887     349.2113    34340.171 
   36900     295.2989   -1307.9042    434.23779    470.44468    390.37897    34340.171 
   37000    288.95406   -1323.9053    438.66942    429.99548   -81.222653    34340.171 
   37100    296.91282   -1306.5987    425.14896    470.00741    744.04675    34340.171 
   37200     303.5672   -1255.5598    455.25346    581.43957    430.60649    34340.171 
   37300    293.04341   -1263.2064    425.79897    496.43734    334.20434    34340.171 
   37400    298.87301   -1295.5535    438.26503    503.09088    59.284228    34340.171 
   37500      300.005   -1295.2356    434.22287    504.51909    93.779933    34340.171 
   37600    292.92246   -1270.7837    400.58847    463.09906    58.858091    34340.171 
   37700    309.59681   -1261.7958    461.06429    608.45937    345.56864    34340.171 
   37800    293.33566   -1292.4163     422.1567    464.91543    295.26858    34340.171 
   37900    317.62652   -1261.9874    425.73414    609.48638    630.06957    34340.171 
   38000    290.91647   -1308.9877     430.4077    445.58362    58.486527    34340.171 
   38100    296.90398   -1323.6157    399.51014    427.31134    288.47265    34340.171 
   38200    293.70153   -1346.0612    419.93639    410.71549   -247.69842    34340.171 
   38300    300.23694   -1328.9259    417.75586    455.41751    111.27118    34340.171 
   38400    297.45436   -1331.6968    433.11229    455.33759   -213.48401    34340.171 
   38500    294.10357   -1303.8929    417.76257    452.54001   -28.898628    34340.171 
   38600    305.52346   -1313.2369    432.63431    510.04757    456.44346    34340.171 
   38700    292.94365   -1285.2486    433.45496    481.59705    673.75393    34340.171 
   38800    304.68294   -1329.6863    433.09246    490.23057    640.84169    34340.171 
   38900    303.29588   -1375.0348    410.66405    416.14016   -51.346015    34340.171 
   39000    298.10287   -1372.0909    416.18972    400.97267    379.60436    34340.171 
   39100    299.78802   -1375.4013    439.00661    428.14949   -65.032037    34340.171 
   39200     312.5145   -1375.1863    422.52487    469.80985   -521.47662    34340.171 
   39300    292.93829   -1370.3851    414.44004    377.42126   -442.31302    34340.171 
   39400    294.94266   -1344.3865     414.7415    412.84461   -142.88289    34340.171 
   39500    297.67656   -1369.3848    420.62125    406.16998   -215.51833    34340.171 
   39600    303.79083   -1363.3407    423.74624    443.16931   -29.561641    34340.171 
   39700    300.45308   -1362.2908    417.81316    423.09375   -172.75977    34340.171 
   39800    297.54093   -1392.2989    426.35943    388.37667    174.78063    34340.171 
   39900    305.70135   -1371.6145    416.95901     436.8044    138.56652    34340.171 
   40000     297.3207   -1340.4639    427.28633    440.13609    308.67273    34340.171 
   40100    298.97289   -1400.6658    424.92834     385.0965    168.50046    34340.171 
   40200    302.43482   -1383.0784    420.36761    413.88091    431.66252    34340.171 
   40300    292.32668   -1400.7244    429.61082    359.46887    157.36595    34340.171 
   40400    307.46223   -1389.4461    431.10431    441.13308    470.54427    34340.171 
   40500    295.31873   -1357.9957    438.78109    424.98675    300.47976    34340.171 
   40600    300.29508   -1376.3143     437.0168    427.55466    130.67866    34340.171 
   40700    293.94703   -1350.0098    428.63322    416.58121    128.42169    34340.171 
   40800    296.28674   -1373.5017    423.10529    398.21099   -293.58291    34340.171 
   40900    294.38186   -1382.9582     450.6092    407.58797   -832.79007    34340.171 
   41000    306.99807   -1326.4322    444.29082    515.22073   -20.952956    34340.171 
   41100    293.86416   -1326.7951    426.67362    437.45909    48.198668    34340.171 
   41200    299.01372   -1308.4287    413.78355    466.37468    670.38193    34340.171 
   41300    297.51161    -1340.589    407.61802    421.21171    236.20987    34340.171 
   41400    290.83164   -1360.5098    415.37571    378.64338    108.05809    34340.171 
   41500    288.63613   -1321.9044    435.74053    427.62033   -15.742286    34340.171 
   41600    303.12585   -1339.8377    427.30561    467.20487     93.20554    34340.171 
   41700    292.77487   -1329.1966    415.50791    418.93378    -671.9839    34340.171 
   41800    307.70427   -1293.5075    469.30222    576.37133   -143.50369    34340.171 
   41900     296.6046   -1302.3918     438.3198     485.9823    101.14108    34340.171 
   42000    310.61647   -1340.6151    443.03352    516.25045    280.07949    34340.171 
   42100     293.6762   -1390.5637    452.82472     398.9861    478.40771    34340.171 
   42200    296.11082   -1369.1098    444.10449    422.80145    496.84425    34340.171 
   42300    292.80789   -1362.6207    447.62494    417.77707    260.95834    34340.171 
   42400    307.09514   -1323.0538    455.22862    529.97884    1100.5296    34340.171 
   42500    298.75862   -1368.9141    467.88313    458.82775    492.99472    34340.171 
   42600    311.40758   -1342.2797    463.83861    538.99183    556.73069    34340.171 
   42700    302.42999   -1312.0447    439.28332    503.80828    389.46594    34340.171 
   42800     298.6922   -1284.1124    467.25457    542.69861     336.0386    34340.171 
   42900    300.89675   -1302.5089    452.23438    519.31626   -556.68569    34340.171 
   43000    297.27524   -1309.2189    444.15292    488.04084   -404.04301    34340.171 
   43100    290.72239   -1342.0835    453.90064    435.09737   -85.207661    34340.171 
   43200    300.33194   -1361.4973    450.83565    456.35828    134.84702    34340.171 
   43300    299.72538   -1301.2151    451.69186    514.73589    241.38473    34340.171 
   43400    299.20353   -1358.4139    474.71315    478.18303     220.9697    34340.171 
   43500    312.92082   -1372.5987    458.07559    509.79768    724.99113    34340.171 
   43600    316.92125   -1403.0367    450.77247    490.26518     643.3747    34340.171 
   43700    291.69435   -1341.2025    455.02538    441.52714    367.87287    34340.171 
   43800    296.34065   -1390.6994    449.80893     407.9623    71.399153    34340.171 
   43900    289.40342   -1390.6962    438.15258    364.73304    582.98574    34340.171 
   44000    298.54376   -1382.5834    430.89053    407.18782    184.62654    34340.171 
   44100    297.03827   -1354.9033    442.68473    439.80966   -108.61204    34340.171 
   44200    300.87339   -1396.2596     415.0012    388.22606    211.39926    34340.171 
   44300     300.9652   -1375.2886    443.41915     438.0329    494.74199    34340.171 
   44400    307.09044    -1392.161    456.20195     461.8236    384.15186    34340.171 
   44500    296.23927   -1408.1431    459.72583    399.97414    363.59722    34340.171 
   44600    302.49495   -1412.2603    461.36646    425.97152    930.59244    34340.171 
   44700    304.89302   -1425.0082    445.63559      408.408    313.90709    34340.171 
   44800     299.8761   -1447.4198    479.19215    396.71743    264.54283    34340.171 
   44900      307.739   -1390.2503    468.57053    479.05488    138.70734    34340.171 
   45000    294.20578   -1371.8581    458.45444    425.73191    277.10724    34340.171 
   45100    306.84647   -1404.6262    450.11896     442.1649    273.42933    34340.171 
   45200    307.73906   -1377.2307    445.81773    469.32198    518.83985    34340.171 
   45300    297.13552   -1366.7162    455.76889    441.52348    413.11833    34340.171 
   45400    304.55003   -1377.3046    460.75849    469.67334    659.78202    34340.171 
   45500    293.51763   -1337.1545    473.75619    472.60503    248.34506    34340.171 
   45600    304.86485   -1353.6077    458.95293    492.99764   -168.84479    34340.171 
   45700    296.15106   -1333.6358    454.36787     468.7219    404.88113    34340.171 
   45800    293.04774   -1391.8499    434.52081    376.53538    320.05997    34340.171 
   45900    300.85309   -1347.6304    456.65965    478.42133    279.22976    34340.171 
   46000    311.85433   -1371.7747    464.22925    511.92098    411.67294    34340.171 
   46100    305.80623    -1374.889    478.79996    495.84823    33.683632    34340.171 
   46200    295.43375   -1363.3925    454.40002    435.73242   -147.50604    34340.171 
   46300    302.35884   -1363.9401    455.09662    467.40234   -52.771915    34340.171 
   46400      301.507   -1340.1981    429.83503    462.00544    201.43222    34340.171 
   46500    292.67143   -1404.4072    468.66858    396.41305   -608.51177    34340.171 
   46600    301.18333    -1416.872    472.50254    426.52575   -327.89541    34340.171 
   46700    293.68702   -1450.4506    439.98998    326.31375   -453.09456    34340.171 
   46800    297.47123   -1379.6135    458.31535    432.70068    102.72383    34340.171 
   46900    296.56575   -1341.4719    447.43422    455.83969   -239.73115    34340.171 
   47000     298.6773   -1338.5599    446.90367    467.83235    25.982211    34340.171 
   47100    302.01023   -1378.1765     456.7743    453.25689   -360.79268    34340.171 
   47200     289.4851   -1407.8948     452.7068    362.46039    163.71674    34340.171 
   47300    297.69773   -1383.8368    442.25075    413.44379    506.76071    34340.171 
   47400    298.40667   -1380.0816    436.61487    414.79006    378.68968    34340.171 
   47500    296.81514   -1396.5611    446.17443    400.62591   -178.75652    34340.171 
   47600    302.40669   -1373.6589     446.6894    449.49415    448.09015    34340.171 
   47700    291.56037   -1394.1497    449.83215    382.77691   -286.20276    34340.171 
   47800    303.57545   -1367.2287     462.5029    477.05766    -58.06985    34340.171 
   47900    304.01298   -1393.9939    455.43744    445.21844   -588.31324    34340.171 
   48000    294.89737   -1376.3937    474.22396    440.11368    187.85134    34340.171 
   48100    297.84553   -1336.1933    450.58321    470.09251    249.42072    34340.171 
   48200    295.48614   -1370.2525    460.65035    435.36123   -162.89095    34340.171 
   48300    303.34153   -1364.3131    466.20138      482.607   -199.57448    34340.171 
   48400    309.65626   -1406.1533    454.55622    457.86434   -347.22096    34340.171 
   48500    310.11181   -1404.6691    459.84256    466.70844   -81.708582    34340.171 
   48600     300.4968   -1363.5057    474.62397    478.88861   -36.559347    34340.171 
   48700    296.85675   -1415.8507    464.23008    399.58131   -475.72565    34340.171 
   48800    295.44327   -1417.0789    460.17271    387.86207   -274.75902    34340.171 
   48900    303.11848   -1394.3757    455.42268    440.75046    75.572655    34340.171 
   49000    295.42339   -1386.0632    466.14924    424.76385   -381.77198    34340.171 
   49100    304.60929   -1421.1469    446.39109    411.73339    -403.1316    34340.171 
   49200    297.97224   -1401.9684    483.81811    438.12907   -279.02908    34340.171 
   49300     296.0916   -1381.1581    486.37082    452.93191   -131.96551    34340.171 
   49400    288.27073   -1384.3677    469.45629    397.20954   -158.23305    34340.171 
   49500    294.88977   -1405.0253    452.33591    389.55942   -135.22206    34340.171 
   49600    306.00335   -1386.8139    488.72257     494.7432     373.4613    34340.171 
   49700    305.04617   -1388.8458    456.44884    456.08073    470.49329    34340.171 
   49800    304.11589   -1381.9392    472.16973    474.47388     46.36804    34340.171 
   49900    307.50865   -1391.4782    462.05081    470.25873   -260.73994    34340.171 
   50000    300.11156   -1408.2335    480.63881    438.42213   -787.99258    34340.171 
   50100    287.25501   -1405.0577    465.11626     367.5563   -808.42659    34340.171 
   50200    296.08569   -1388.4777    472.16134    431.37599    -655.2121    34340.171 
   50300    298.63989   -1368.9419     484.2914    474.66781    55.289218    34340.171 
   50400    312.57528   -1375.2904    475.16011    522.61763    143.34232    34340.171 
   50500    298.20015   -1430.3534    464.87939    391.84271   -30.074278    34340.171 
   50600    301.08526   -1412.3447    468.57024    426.67436    197.04484    34340.171 
   50700    305.26915   -1426.0616    459.68694      423.118    -591.2181    34340.171 
   50800    301.41461   -1344.3609    477.40903    504.99611   -497.89762    34340.171 
   50900    291.16763   -1372.4921    478.31122    431.12597    38.453257    34340.171 
   51000    298.20653   -1380.9036    462.34096    438.78309    95.135099    34340.171 
   51100    306.03623   -1389.2735     462.9088    466.61946    70.317608    34340.171 
   51200    298.34167   -1405.1878    454.99728    407.77033    736.15995    34340.171 
   51300     309.9215   -1420.3678    461.26742    451.56831    521.64122    34340.171 
   51400    307.50891   -1425.3777    459.33308    433.64271    484.12435    34340.171 
   51500    310.45582   -1409.0385    449.93441    453.99675    81.924376    34340.171 
   51600    298.19885   -1402.1615    477.15193    432.30122    486.93021    34340.171 
   51700    295.97935   -1409.3751    438.07039     375.9036   -125.31574    34340.171 
   51800    303.37064   -1399.7646    452.76819    433.85479   -48.109289    34340.171 
   51900    307.45443   -1414.6515    463.03681    447.82471   -82.623581    34340.171 
   52000    298.58849   -1420.3452    469.58333    408.32245   -285.83438    34340.171 
   52100    305.69351   -1368.2933    454.18655    477.31749    132.20365    34340.171 
   52200    287.31603   -1379.7877    478.62119    406.60895    386.34304    34340.171 
   52300    298.70312   -1410.8999     468.1502    416.85642    383.73851    34340.171 
   52400    306.01631    -1397.052    450.11609    445.95762   -31.227023    34340.171 
   52500    293.54786   -1377.9276    437.75774    395.97107    -9.616126    34340.171 
   52600    290.24554   -1437.9556    461.57457    344.72877    111.62218    34340.171 
   52700    291.57693   -1376.8985    457.45388    407.72516    423.21954    34340.171 
   52800    307.55042   -1364.3464    462.31634    497.84626    439.35781    34340.171 
   52900    292.39119   -1370.3369    479.93396     440.4731    349.72323    34340.171 
   53000    306.80965   -1386.3646    483.55762    493.69759    246.57564    34340.171 
   53100    315.32933   -1421.3249    475.24143    489.20005   -139.67115    34340.171 
   53200     300.0966   -1446.4681     454.7636     374.2443    290.76548    34340.171 
   53300    301.48513   -1418.2607    449.96806     403.9763    283.69153    34340.171 
   53400    293.41146   -1407.5305    455.93128    383.92077    298.08713    34340.171 
   53500    303.72736   -1379.9925    462.37763    464.85998   -2.8402763    34340.171 
   53600    304.97006   -1438.7665    460.61077    409.97555    265.42255    34340.171 
   53700    291.97323   -1440.4638    470.13713    358.64702    928.48447    34340.171 
   53800    305.40668   -1410.2329    458.64209    438.52785    897.19006    34340.171 
   53900    291.93946   -1411.2946     456.3082    373.83353    174.73961    34340.171 
   54000     302.4378   -1438.9822    459.18366    396.80668    325.94006    34340.171 
   54100    292.80097   -1461.0594    471.81932    343.50117    648.91303    34340.171 
   54200    304.07504   -1414.3552    461.09093    430.79318    695.92072    34340.171 
   54300     303.3149   -1438.5817    428.36594    370.38173    322.33013    34340.171 
   54400    301.85278   -1440.3638     465.1827    398.76127   -15.544165    34340.171 
   54500    306.05971   -1432.6953    463.46881     423.8646    155.59893    34340.171 
   54600    288.60642   -1423.1545    459.14093    349.63539   -205.99333    34340.171 
   54700    301.53785   -1420.2857    454.03137    406.25459    62.828225    34340.171 
   54800     292.6333   -1347.1759     475.0117    459.81391   -702.28194    34340.171 
   54900     306.4338   -1364.2026    480.96647    511.55761   -953.71517    34340.171 
   55000    295.95845   -1385.1032    468.00333    430.01333   -212.61458    34340.171 
   55100    300.02467   -1420.7186    452.28802    397.19078   -89.001237    34340.171 
   55200    300.83906   -1434.9716    446.25243    380.60907   -696.70721    34340.171 
   55300    303.61487    -1392.941    446.18695    435.20882    -186.2864    34340.171 
   55400    292.17279   -1361.1169    465.92231    434.68737   -138.69074    34340.171 
   55500     303.7455   -1369.4292    453.58073    466.70906    701.34401    34340.171 
   55600     298.9904   -1393.1234    461.89007    429.68038    358.63209    34340.171 
   55700    299.58955   -1377.7934    459.58576    445.43316     400.4286    34340.171 
   55800    303.82018   -1429.0108    459.44074    413.32732   -451.38286    34340.171 
   55900    305.78593   -1403.5258    449.27553    437.59464   -572.33136    34340.171 
   56000    298.14524   -1336.7843    454.82506    475.10752   -300.19665    34340.171 
   56100    296.19835   -1359.5816    466.11618    454.73972   -1139.2425    34340.171 
   56200    294.53927   -1363.7803    433.65331     410.5265   -487.05117    34340.171 
   56300    301.27845   -1389.7344    460.49054    442.08436     -525.925    34340.171 
   56400    300.68406   -1400.4628    494.07581    462.23575   -635.34369    34340.171 
   56500    298.10815    -1403.164    444.54561    398.27955   -664.96934    34340.171 
   56600    303.97859   -1350.8311    466.28526    499.07254   -555.99525    34340.171 
   56700    301.73396   -1420.6954    442.88701    395.59314   -668.29623    34340.171 
   56800    298.90315   -1370.8888    449.97667    439.60445    253.75418    34340.171 
   56900    302.60332   -1356.9611    469.49373    489.89127    470.30254    34340.171 
   57000     291.4057    -1383.829    455.79478    398.35617     369.9958    34340.171 
   57100    295.82024   -1417.8808     439.6473    368.25061    397.63129    34340.171 
   57200    305.18485   -1400.3322    439.31007    428.08675     457.5463    34340.171 
   57300    295.72832   -1430.6745    470.09804     385.4893    39.689008    34340.171 
   57400    299.00496   -1449.3396    453.85204    365.49245    89.105296    34340.171 
   57500    299.56278   -1405.8837    478.72503    436.36032    684.91537    34340.171 
   57600    302.87699   -1393.0137    453.39328    438.98383    237.08879    34340.171 
   57700    299.01312   -1457.6866      450.812    354.14255    437.68407    34340.171 
   57800    296.79106   -1400.1582    448.06772    398.81252    253.27202    34340.171 
   57900    306.69641   -1400.2557    446.50408    442.23753    274.21242    34340.171 
   58000    306.19454   -1422.7432    466.33918    437.30077     325.7057    34340.171 
   58100    302.08977    -1383.181    457.36625    449.20637     705.0646    34340.171 
   58200    295.59398   -1434.4269    455.70234    366.72958    22.849918    34340.171 
   58300    303.01641   -1439.7081    440.10748    379.63829   -47.695371    34340.171 
   58400    299.59525   -1407.0037    461.95178    418.61482    94.891326    34340.171 
   58500    293.77384    -1419.091    442.82077    360.89925   -132.88048    34340.171 
   58600    291.43687   -1421.8544    432.26464    336.94252    296.81841    34340.171 
   58700    292.62764   -1452.4566    424.88279    304.37856    200.72019    34340.171 
   58800    290.46139   -1460.7206    453.04104    314.41263    372.84981    34340.171 
   58900    304.39535   -1432.8997    469.70134    422.31698    126.53923    34340.171 
   59000     308.4997   -1433.4862    447.62873    418.33965    429.46219    34340.171 
   59100    315.82523   -1422.0119    450.44509    465.97387   -183.33698    34340.171 
   59200    291.66441   -1405.5725    451.31075    373.30629     250.1292    34340.171 
   59300    312.09377   -1393.4354    450.70742    477.82832    863.31022    34340.171 
   59400    299.53403   -1435.1561    463.67817    391.91021    1096.1001    34340.171 
   59500    297.05083   -1400.6973    460.67821    412.06626    927.25455    34340.171 
   59600    302.20765   -1401.1542      483.085    457.48846    225.00967    34340.171 
   59700    303.87007   -1395.7417     447.1045    434.48727    472.36435    34340.171 
   59800    307.79327   -1376.8321    473.71927    497.86886    228.12971    34340.171 
   59900    300.73188   -1419.3116    478.19841    427.72714    236.18314    34340.171 
   60000    294.94209   -1406.9294     441.2558    376.81335   -124.32535    34340.171 
   60100    310.54118   -1413.9192    453.38165    452.95181    179.02816    34340.171 
   60200    301.19361   -1502.4437    467.80322    336.30153    448.48613    34340.171 
   60300    286.42681   -1424.2719    463.08799    342.54412    270.42954    34340.171 
   60400    292.98589   -1406.7849    427.36339    354.16147     541.3699    34340.171 
   60500    302.10377   -1411.8951    467.73992    430.92968    680.05837    34340.171 
   60600    310.26077   -1405.8456     482.2656    488.63297   -393.76281    34340.171 
   60700    295.28113    -1428.722    448.89689    364.20506   -381.44368    34340.171 
   60800    304.96567   -1396.6799    459.45443    450.88587   -625.86447    34340.171 
   60900    302.62741   -1394.8912     465.7785    448.35553   -324.83733    34340.171 
   61000    296.18578   -1401.3837    456.16085    402.92508   -7.5050179    34340.171 
   61100    297.09284   -1392.4788    451.84663    411.64441     -1088.71    34340.171 
   61200    297.21221   -1406.3959    460.11122    406.53522   -65.065618    34340.171 
   61300    297.17827   -1438.7932    440.71926    354.59149   -625.84226    34340.171 
   61400    304.77451   -1458.6245    440.69613    369.31283   -490.35933    34340.171 
   61500    285.24612   -1394.4793    443.44129    347.31583   -565.41591    34340.171 
   61600    300.84943   -1408.3808    456.37594    417.37056   -482.54448    34340.171 
   61700    298.92743   -1399.4426    451.70713    412.89157    486.90863    34340.171 
   61800    301.93948   -1421.5015    439.14128    391.97675    305.29109    34340.171 
   61900    291.24658    -1445.032     439.1449    319.77906    -4.259615    34340.171 
   62000    290.35958   -1422.4226    445.09807    344.30431     359.0221    34340.171 
   62100    289.96476   -1418.7186    451.14714    352.26028   -87.049572    34340.171 
   62200     291.0901   -1451.4045    459.15608     332.7055   -215.06617    34340.171 
   62300    306.74275   -1435.5847    464.23139    424.84667    319.16148    34340.171 
   62400    305.37479   -1409.8898    460.45392    440.53764   -160.84546    34340.171 
   62500    289.64102   -1442.0443    441.35569    317.66952    304.52879    34340.171 
   62600    296.81296   -1440.3721    450.67307    361.30361    399.08347    34340.171 
   62700    292.35237   -1414.1515    471.49769    388.04558   -22.495135    34340.171 
   62800    288.34271   -1399.6411    491.44482    404.25239   -400.76415    34340.171 
   62900    295.87673   -1465.7601    470.37842    351.35957   -261.80674    34340.171 
   63000    294.06812   -1419.4676    461.46343    380.50477     220.2083    34340.171 
   63100    305.77003   -1405.7852    429.65454     415.6419   -24.160716    34340.171 
   63200    303.07871   -1428.8565    454.50805    405.17396    2.4658293    34340.171 
   63300     311.4792   -1385.2153    475.20352    507.74712    39.212667    34340.171 
   63400    302.60386    -1386.335    461.55931    452.58542     308.6684    34340.171 
   63500    297.70038   -1422.4963    463.05059    395.59621   -300.88746    34340.171 
   63600    293.23258   -1404.7132     463.0668    393.05946   -333.44927    34340.171 
   63700    301.57334   -1399.1959    467.64959    441.12418   -774.41817    34340.171 
   63800    298.87211   -1403.5702    463.75693    420.56201   -566.24299    34340.171 
   63900    297.88657   -1452.8009    440.63925    343.72771    -519.9612    34340.171 
   64000     309.7892   -1439.7979    459.80986    430.07845   -69.826311    34340.171 
   64100    296.76438   -1424.7185    454.78315    380.84623    20.439375    34340.171 
   64200    300.16521   -1449.3759    454.08385    370.96903     482.7306    34340.171 
   64300    298.32199   -1420.7377    466.29067    403.42427     781.9421    34340.171 
   64400    306.22548   -1443.2205    454.65726    405.28238    672.42379    34340.171 
   64500    303.38639   -1472.5436    457.33135    365.71059    181.09294    34340.171 
   64600    295.16835   -1389.1155    469.72243    424.12386    379.23238    34340.171 
   64700    294.86749   -1438.3969    450.44524    354.19576   -449.01884    34340.171 
   64800    292.02882   -1427.0883    447.16753    349.30587   -532.94209    34340.171 
   64900    295.28023   -1399.4321    457.21171    401.80568   -517.04865    34340.171 
   65000    292.10304   -1382.7817    465.57396    412.35675   -83.478488    34340.171 
   65100     295.3303    -1409.942    448.31636    382.62835   -115.41085    34340.171 
   65200     298.5931   -1435.4241     489.9029    413.58407   -285.73922    34340.171 
   65300    294.45871   -1447.5474     479.3782    372.11758    9.1640177    34340.171 
   65400    303.24759   -1449.4292     451.4013    382.26324    844.62683    34340.171 
   65500    303.34388   -1433.8928     446.8945    393.73109    329.46946    34340.171 
   65600    289.87259   -1439.9219    475.76453    355.25483   -557.12694    34340.171 
   65700    304.20375   -1415.9827     468.3541    437.01473    446.35553    34340.171 
   65800    306.09322   -1423.7893    444.90079    414.35503    542.93902    34340.171 
   65900    310.99405   -1419.4773     463.1297     459.2031    673.70205    34340.171 
   66000    299.30911   -1379.8192    468.98812    451.53325    354.17838    34340.171 
   66100    312.04398   -1351.3767    494.56134    563.51427    352.26909    34340.171 
   66200    305.44962   -1384.6343    482.45843    488.13822   -494.05351    34340.171 
   66300    300.12743   -1397.1196    471.88826    440.85775   -216.91664    34340.171 
   66400     291.5145   -1403.5058    476.30562    399.68553   -667.36041    34340.171 
   66500    307.53349    -1362.406    495.06075    532.45401   -459.82919    34340.171 
   66600     287.1055    -1386.079    474.65851    395.39674   -648.09004    34340.171 
   66700    300.86977   -1427.3865    434.40535    376.48686   -574.63677    34340.171 
   66800    292.04286   -1400.5839    453.70603    382.41276   -408.24219    34340.171 
   66900    304.99012   -1466.1319    460.60206    382.69279    220.09915    34340.171 
   67000    293.64403    -1504.763    461.95398    293.76961    634.96456    34340.171 
   67100    307.42703   -1452.7408     480.2947    426.86856    314.37791    34340.171 
   67200    301.33253   -1483.2681    474.10995     362.4162    971.22141    34340.171 
   67300    303.23773   -1493.4112    475.65621    362.49122     511.1045    34340.171 
   67400    304.94914   -1424.5247    470.61686    434.12824    365.44275    34340.171 
   67500    292.12487   -1424.1441    472.31007    377.82991   -5.3945157    34340.171 
   67600    308.05587    -1450.807    461.09182    412.46181    525.04282    34340.171 
   67700    301.59953   -1477.1187     471.5717    367.24269    631.82435    34340.171 
   67800    292.44368   -1436.4243     458.6004    353.29114    718.56746    34340.171 
   67900    302.75974   -1403.6657    470.43197    444.83687     78.56497    34340.171 
   68000    303.04977   -1385.9346    471.64596    465.10211    756.66402    34340.171 
   68100     299.9867   -1370.2788    468.75986    463.92959    629.52989    34340.171 
   68200    300.07369   -1370.1141    492.70613    488.43648     730.6111    34340.171 
   68300    297.65219   -1398.6456    475.68335    431.86035    1036.5209    34340.171 
   68400     299.3618   -1400.9415    455.71444    417.37714     821.8699    34340.171 
   68500    316.61201   -1385.7298     453.2258    508.61794   -101.01787    34340.171 
   68600    299.19582   -1365.8787    459.63931    455.60936    660.63685    34340.171 
   68700    301.65497   -1425.5438    475.10148    422.59967    752.49635    34340.171 
   68800    301.07499   -1410.9433    472.33703    431.79587    603.64667    34340.171 
   68900    296.94749   -1406.0619    476.96675    422.51984    539.68912    34340.171 
   69000     293.2213   -1410.9812    467.90285    391.57615    415.99939    34340.171 
   69100    288.05249    -1372.344    463.18539    401.96905    197.33467    34340.171 
   69200    304.53385    -1399.575     510.7782    497.34901   -167.32106    34340.171 
   69300    300.62743   -1465.0453     447.3651    350.68477   -35.971532    34340.171 
   69400    288.62688   -1498.9541    456.80044    271.58842    8.6692543    34340.171 
   69500     290.8435    -1447.809    454.78891    330.81138   -393.74881    34340.171 
   69600    298.33604   -1454.1046    477.95972    381.79039    6.3219148    34340.171 
   69700    296.66743    -1413.576    453.46752    390.23171    53.745269    34340.171 
   69800    304.10356   -1384.9691    459.96385    459.18198    828.79756    34340.171 
   69900    294.16332   -1374.4075    477.46686    442.00167    799.31975    34340.171 
   70000    304.82015   -1428.4486    456.12188    415.12224    522.44228    34340.171 
   70100    300.50955   -1413.6367    479.43333    433.62504    -157.4881    34340.171 
   70200    296.80852   -1434.0981    476.91658    393.80086    651.41401    34340.171 
   70300    303.93491   -1440.5205    467.28433    410.18345    320.53616    34340.171 
   70400     296.9595   -1401.7923    476.52341    426.40074    144.19591    34340.171 
   70500     307.3814   -1434.3702    467.30826    432.04503   -356.85521    34340.171 
   70600    297.06279   -1444.1887     471.9407    379.89179   -461.31932    34340.171 
   70700    304.17072   -1427.2695    483.15783    440.38124   -423.80663    34340.171 
   70800    290.94097   -1504.9161    460.27085    279.62984   -290.15018    34340.171 
   70900    294.20502   -1461.0681    485.53795      363.602   -639.52673    34340.171 
   71000    309.39616   -1436.2501    455.17319     427.2007    192.75445    34340.171 
   71100    306.13906   -1440.3639    498.81662    451.90493    -433.6615    34340.171 
   71200    288.65511    -1421.392    466.56577    359.04439   -290.63535    34340.171 
   71300     296.3262   -1453.2629    469.51313    365.03732   -471.19921    34340.171 
   71400    296.13605   -1386.9011    475.78706    436.80755   -876.02066    34340.171 
   71500    286.65138   -1411.8411    472.81921    365.72832    -1079.017    34340.171 
   71600    297.05034    -1423.068    489.17023    418.18539     -229.566    34340.171 
   71700    295.11257   -1361.4548    479.71882    461.52697    217.27503    34340.171 
   71800    294.91705   -1432.0652    470.54951    380.85731    343.28477    34340.171 
   71900    294.00186   -1445.8135    483.41717    375.81098    410.18377    34340.171 
   72000    297.95964   -1389.4294    471.30089    438.09353    805.09001    34340.171 
   72100    300.99717   -1433.4502    460.45363    397.05134     224.9602    34340.171 
   72200     297.7567   -1403.3067    463.97659    415.96814    592.58409    34340.171 
   72300    296.11187   -1429.7715    468.97803    387.01799    479.19144    34340.171 
   72400    308.14068   -1445.9947    497.63747    454.20582    609.19589    34340.171 
   72500    302.38764   -1424.0854    485.13785    437.42938   -150.09406    34340.171 
   72600    298.47255    -1390.658    497.74089    465.63949     192.0021    34340.171 
   72700    297.04071   -1403.0521    478.02234    427.00959   -171.44784    34340.171 
   72800    307.29702   -1388.0154    489.18277    499.89028   -443.28588    34340.171 
   72900    296.41774   -1403.6726    474.58924    420.12029   -644.15547    34340.171 
   73000    296.22058   -1392.3162    471.83284    427.82296   -714.47072    34340.171 
   73100    306.24099   -1411.7444    479.44759     461.6194   -235.00368    34340.171 
   73200    299.84149   -1430.9973    484.16348    417.95379   -252.54348    34340.171 
   73300    303.37872    -1450.277    478.13949    408.75049   -329.39907    34340.171 
   73400    307.29512   -1449.2899     459.6022     409.0266   -479.20086    34340.171 
   73500     297.2795   -1460.8473    479.80231    372.08117   -157.35845    34340.171 
   73600    291.53338   -1411.7776    492.25622    407.45018   -167.39863    34340.171 
   73700    284.97445   -1420.2531    482.83968    359.70393   -9.5424328    34340.171 
   73800    285.41326   -1404.4401    507.39255    402.06706    637.59089    34340.171 
   73900    305.62413   -1413.0314    478.74328    456.82036    17.250185    34340.171 
   74000    300.09045   -1426.9591    475.13757    414.09928     158.7719    34340.171 
   74100     302.7255   -1443.3074    493.98292    428.59021    172.17506    34340.171 
   74200    299.69381   -1446.5495    463.20697    380.77282    970.35897    34340.171 
   74300    294.29473   -1435.9423     467.1136    370.71174    498.15179    34340.171 
   74400     300.8111    -1452.657      473.016       389.56    335.08112    34340.171 
   74500    296.29356   -1466.5081    468.00819    350.13854   -357.65648    34340.171 
   74600    294.76015   -1443.6037    468.44448    366.49964    442.39945    34340.171 
   74700    306.14151   -1441.0594    463.58586    415.98988    69.952796    34340.171 
   74800    291.98429   -1383.8745    513.31503    458.46453   -284.88036    34340.171 
   74900    304.50158   -1391.8137    479.90957     474.0948    107.91852    34340.171 
   75000    302.30257   -1436.5525    463.57141    403.00863     209.3045    34340.171 
   75100    308.98067   -1463.9493    478.60493    421.04197    258.30953    34340.171 
   75200    296.72829   -1463.9352    463.72009    350.40214    175.76338    34340.171 
   75300    303.48264   -1465.6855    475.43151    391.10701   -58.756484    34340.171 
   75400     294.2637   -1449.2558    474.97653    365.11993    -608.5415    34340.171 
   75500    301.21014   -1413.3944    499.66923    457.29211    -147.6644    34340.171 
   75600    299.06845   -1459.1568    496.41611    398.52825     -140.421    34340.171 
   75700    301.27324   -1473.2663    494.30928    392.34743   -463.36271    34340.171 
   75800     301.6483   -1448.5169     482.6966    407.19135   -737.84861    34340.171 
   75900    304.31024   -1478.0972    498.36133    405.39205   -180.74166    34340.171 
   76000    297.02003   -1459.8059    467.27278    359.41204    129.45351    34340.171 
   76100    298.44623    -1440.875    495.62896    413.19076    463.44173    34340.171 
   76200    299.31249    -1493.282    495.28359    364.38136    110.72754    34340.171 
   76300    289.63956   -1485.2771    494.47558    327.54998     811.4039    34340.171 
   76400    288.49099   -1499.8889    480.75098    293.98566    422.42314    34340.171 
   76500      303.001   -1480.6501    512.39023    410.90884    480.83569    34340.171 
   76600    297.95971   -1458.7648    477.40398    374.86147    359.65385    34340.171 
   76700    309.83342   -1432.3702    484.13912    462.03674    650.76183    34340.171 
   76800    290.70971   -1420.5759    487.56175    390.20837    356.22552    34340.171 
   76900    295.79942    -1484.805    471.67772    333.26208   -432.69025    34340.171 
   77000     301.2659   -1456.2675    477.12455    392.12814   -78.175546    34340.171 
   77100    302.45678   -1470.7673    464.67574    370.60001   -157.03019    34340.171 
   77200    295.02247   -1443.8919    481.85778    380.81875     20.77431    34340.171 
   77300    298.08723   -1420.6219    478.58655    414.76739   -374.17381    34340.171 
   77400    299.45983   -1466.6892    459.60443    355.96563   -528.06574    34340.171 
   77500    293.34476   -1440.9047    482.98136    377.29308    247.06465    34340.171 
   77600    296.33503     -1433.34    496.02543    411.51273    143.81385    34340.171 
   77700    303.89206    -1478.523    482.99443    387.69598   -467.52375    34340.171 
   77800    289.41689   -1459.6157    486.71617     344.4384   -317.17256    34340.171 
   77900    299.35254   -1469.3023    467.62126    360.88101   -192.46209    34340.171 
   78000    297.93525   -1472.1621    471.52834    355.47722   -120.39119    34340.171 
   78100    306.37879   -1445.3314    486.54028    435.75231   -149.67436    34340.171 
   78200     302.1088   -1431.1901     478.6419    422.55952    318.49169    34340.171 
   78300     289.7798   -1466.8528    487.16624    339.30324    440.27852    34340.171 
   78400    300.77373   -1482.7672    472.92849    359.19218    379.53516    34340.171 
   78500    313.15927   -1467.5335    488.73497     446.6076    774.22729    34340.171 
   78600    300.84643    -1452.235    515.19103    432.31779    224.87992    34340.171 
   78700    303.76616   -1447.7561    475.72182    410.61723   -61.954448    34340.171 
   78800    298.03747   -1453.3961    491.26537    394.44556   -337.29367    34340.171 
   78900    302.44699   -1483.7212    448.01247    340.93835   -230.48754    34340.171 
   79000    291.18263   -1462.5279    491.48946    354.33668    -528.0665    34340.171 
   79100    294.21008   -1435.3847     495.5955    399.36592    104.13772    34340.171 
   79200    306.20313   -1477.2779    504.43375    420.89973    -78.82315    34340.171 
   79300    306.78753   -1458.3302    516.46606    454.53969    223.83534    34340.171 
   79400    300.72105   -1440.6724    469.90828     398.0269    300.35527    34340.171 
   79500    298.83091    -1440.598    494.20709     413.7968    247.33253    34340.171 
   79600    304.22977   -1439.1967    471.73757    417.30258    232.53808    34340.171 
   79700    292.19019   -1477.7086    485.06851    337.32117   -59.872284    34340.171 
   79800    299.98372   -1492.6999    500.44259     373.1777    582.36996    34340.171 
   79900    290.80841   -1473.1332    522.41678    372.95534    356.38837    34340.171 
   80000    287.89051   -1464.4784     471.8791    317.79106   -44.414881    34340.171 
   80100    306.03348   -1450.0054    512.62132    455.58762    244.45578    34340.171 
   80200    305.32935   -1498.3102    481.94682    373.40328    183.72195    34340.171 
   80300    296.47976   -1465.5192    472.17737    356.14422    58.172512    34340.171 
   80400    303.33682   -1472.9136    487.35616    395.13987   -613.04871    34340.171 
   80500    302.32616   -1458.8321    497.61986     414.8848   -56.081665    34340.171 
   80600    302.09479   -1442.9051    475.84227    407.98107   -316.48792    34340.171 
   80700    303.58215   -1452.6317    468.70298    397.88518   -342.30589    34340.171 
   80800    303.06169   -1415.9015    479.23787    442.78139    54.677901    34340.171 
   80900    308.35539   -1442.1565    495.56794    456.95169    280.96272    34340.171 
   81000    317.68703   -1469.1971    473.11925     449.9372     191.7558    34340.171 
   81100    301.75364   -1421.3307    488.32468    440.48517   -153.26335    34340.171 
   81200    301.55842   -1441.1844    508.29104    439.70922   -561.40365    34340.171 
   81300    308.32784   -1471.8438    499.24809    430.81921   -400.41592    34340.171 
   81400    294.93085   -1447.7244    476.42437     371.1358    -408.3667    34340.171 
   81500    306.15245   -1469.3926    493.47831    417.59889   -12.302333    34340.171 
   81600    300.92341    -1466.015    454.29384    357.99097    517.90528    34340.171 
   81700    296.76433    -1461.809    475.45464    364.42697    807.29849    34340.171 
   81800    300.14379    -1487.264    493.03626    371.93583    571.09536    34340.171 
   81900    306.46393   -1494.3453     485.9425    386.52813   -498.22758    34340.171 
   82000    306.26865   -1459.4053    512.21803    446.85479   -118.74292    34340.171 
   82100     302.5747   -1473.0427    495.22855    399.41414    214.51869    34340.171 
   82200    299.89075     -1475.63      485.686    375.06784    373.64407    34340.171 
   82300    296.49958   -1444.2086     490.3503    395.71792    167.88511    34340.171 
   82400    292.53729   -1461.0874    478.20419    348.65783   -384.01028    34340.171 
   82500    290.66123   -1445.2104    498.26162    376.05308   -355.27147    34340.171 
   82600    303.88783   -1484.6178    508.14901    406.73654   -72.615608    34340.171 
   82700    295.25318   -1458.3337    510.50208    396.07135   -9.7713271    34340.171 
   82800    297.34363   -1423.0602    484.50992    414.86783   -26.009214    34340.171 
   82900    291.59126   -1470.8725    499.37178    355.73435    694.68827    34340.171 
   83000    304.46681   -1505.4806    478.92214    359.28217    777.63581    34340.171 
   83100    303.94737   -1490.3289    520.42654    413.57397     716.2899    34340.171 
   83200    298.89199   -1486.2614    508.75056    382.95488    574.57179    34340.171 
   83300    300.82289   -1486.7335    486.65113    369.17228    281.59055    34340.171 
   83400    300.84527   -1459.6986     465.2725    374.93034    115.55894    34340.171 
   83500    299.22122   -1467.4484    447.47329    341.98919   -191.34201    34340.171 
   83600    294.85959   -1515.7198    486.88542    313.27713    -71.71503    34340.171 
   83700    307.50391   -1499.2551    507.88584    408.29537    107.80006    34340.171 
   83800    303.94165   -1507.2618    497.20295    373.39147    299.81239    34340.171 
   83900    294.59208   -1495.1932    488.34576    334.04643    258.67544    34340.171 
   84000    312.86408   -1457.4655    482.32706    448.92403      370.105    34340.171 
   84100    301.30524    -1484.845    485.88997    372.49515    627.10652    34340.171 
   84200    296.07732   -1502.9717    492.37145    337.05395    190.51257    34340.171 
   84300    305.15421   -1517.5466    495.84144    367.26436   -82.571035    34340.171 
   84400    306.16042   -1435.8707    486.82881    444.50755   -122.30702    34340.171 
   84500    312.40321   -1444.4688    488.96977    466.46571    -532.0611    34340.171 
   84600    300.31456   -1473.7697    494.23654    387.40774   -1484.9776    34340.171 
   84700     295.4851   -1468.3831    468.38693    344.96244   -1313.9508    34340.171 
   84800    296.92307   -1479.4735    487.92204    359.95239    244.68831    34340.171 
   84900    297.99767   -1497.1134    494.11041    353.39204    -200.1164    34340.171 
   85000    298.72333    -1503.864    475.35707    331.19118    388.23106    34340.171 
   85100    298.54463   -1511.0043    490.65902    338.53944     430.2731    34340.171 
   85200    301.81155   -1493.9382    505.21846    385.03498     764.3621    34340.171 
   85300    305.80291    -1483.139    506.61733    415.40048    361.93168    34340.171 
   85400    302.51615   -1450.9058    507.14589    433.20194    97.911786    34340.171 
   85500    285.05316   -1432.1982    516.94723    382.22459   -149.30856    34340.171 
   85600    305.98155   -1476.6531    470.89981    386.98205   -111.64377    34340.171 
   85700    304.69367   -1512.7092    470.26161    344.42565    49.594867    34340.171 
   85800    304.17417   -1507.8739    487.00779    363.64252    607.52888    34340.171 
   85900    298.54792   -1456.0999    485.82129    388.62105   -7.5153324    34340.171 
   86000    298.08075   -1448.4878    508.28656    416.57205   -113.94282    34340.171 
   86100    294.71262   -1467.0396    474.48198    348.88486    1.3936303    34340.171 
   86200    281.22525   -1449.6024    498.70547     329.1552   -391.86858    34340.171 
   86300    311.88242   -1434.8198    500.62504    485.39951   -325.30443    34340.171 
   86400    294.93946   -1452.7165    501.32041    391.07899   -814.15591    34340.171 
   86500    303.82055   -1416.3794    494.67514    461.19478   -534.28657    34340.171 
   86600     300.0024   -1450.0489    505.02282    420.49391   -47.650317    34340.171 
   86700    312.86393   -1484.8506    503.03444    442.24563   -190.43533    34340.171 
   86800    301.43218   -1467.1828    489.61524    394.46032   -157.84243    34340.171 
   86900     297.0304   -1429.4083    501.43297    424.01706   -425.32846    34340.171 
   87000    294.09075   -1470.8679    494.31056     362.0546   -391.67377    34340.171 
   87100    308.07038   -1465.8763     503.8028    440.16949    115.22167    34340.171 
   87200    288.51021   -1471.0703    517.78046    359.92118   -169.93359    34340.171 
   87300    294.99096   -1474.6035    500.13539    368.24134   -142.60934    34340.171 
   87400    297.58209   -1492.6888    487.87954    349.69427     355.9532    34340.171 
   87500    298.31913   -1498.7046    518.88412    378.03777   -274.98737    34340.171 
   87600    290.10048   -1474.6581     486.5404    332.33173   -658.59874    34340.171 
[...]
  985000    296.61517   -1571.7203    508.89661    287.27867    592.28413    34340.171 
  985100    295.92931   -1564.0881    499.20816    282.10058    338.44804    34340.171 
  985200    304.98661   -1535.6043    514.06631    366.66865   -54.201713    34340.171 
  985300    305.19555   -1541.6747    507.61319    355.09614   -299.32226    34340.171 
  985400     303.8227   -1533.9562    531.64823    380.60084   -355.75985    34340.171 
  985500     299.8259   -1490.1321    584.29595    458.88048   -219.95148    34340.171 
  985600    301.71666   -1505.4381        514.5    382.38468    -233.1782    34340.171 
  985700    299.57962   -1508.4711    523.31806    378.44257   -125.29687    34340.171 
  985800    299.41693   -1467.2939    509.82866    405.38985    133.82648    34340.171 
  985900     300.6183   -1496.7686    524.20478    395.75953   -420.58164    34340.171 
  986000    300.32206   -1513.3873    520.88227    374.46997   -318.88779    34340.171 
  986100    293.08804   -1521.9505    484.68806    296.78548   -412.11837    34340.171 
  986200      293.766   -1518.8017    514.81304    333.14514    259.33439    34340.171 
  986300    305.30739     -1517.08    522.78687    395.37359    420.50579    34340.171 
  986400    292.08243   -1454.4129    563.12977     438.1876    301.88119    34340.171 
  986500    297.41953    -1492.879    529.60073    390.48533     165.4897    34340.171 
  986600    299.56799   -1507.3525    507.84095    364.03116   -407.97888    34340.171 
  986700    299.62355   -1483.7097    555.89174    435.97759   -510.68353    34340.171 
  986800    297.03779   -1502.7416    500.01823    349.30262   -748.80885    34340.171 
  986900    304.25948   -1519.7447    515.40032    380.55261   -1238.8623    34340.171 
  987000    299.19015   -1544.2496    514.98081    332.55415    -1275.801    34340.171 
  987100    298.54865   -1523.5198    507.23585    342.61905   -585.72508    34340.171 
  987200    299.23447   -1529.6396    565.83085    398.21591   -60.794353    34340.171 
  987300     294.1132   -1535.8664    506.11908     308.9669    107.50985    34340.171 
  987400    298.09293   -1487.3347    525.81006    395.30406    55.153179    34340.171 
  987500    300.65717   -1489.8879     520.9026    399.51501    111.96961    34340.171 
  987600    294.34179   -1512.6826    512.50597    339.57802   -170.00521    34340.171 
  987700    293.97018   -1493.4073    530.57343    375.22927    532.18948    34340.171 
  987800    296.90014   -1521.8261    510.70661    340.27994    389.01219    34340.171 
  987900    302.57985   -1561.1643    497.44661    313.53408    495.67102    34340.171 
  988000    300.55735   -1514.9649    533.43812     386.5192    597.51551    34340.171 
  988100     304.1765   -1485.4502    546.16826    445.23734    1087.8629    34340.171 
  988200    297.89319   -1497.3993    542.62316    401.14341    870.47149    34340.171 
  988300    303.30192   -1505.1951    538.59533    413.93863    1704.2076    34340.171 
  988400     307.9327   -1508.0386    523.49539    417.07315    628.08212    34340.171 
  988500    296.54633   -1535.0036    521.65912    336.44454    269.17163    34340.171 
  988600    296.87453   -1536.5672    539.32615    354.04181   -192.97293    34340.171 
  988700    295.73179   -1528.0666     516.0106    334.02543   -510.30025    34340.171 
  988800    307.11752   -1538.0526    507.04585     366.8992   -151.35489    34340.171 
  988900    308.22083   -1519.0945    548.36714    432.20046    304.37023    34340.171 
  989000    302.02971   -1537.9336    529.63836    366.45254    750.12966    34340.171 
  989100    292.42895   -1498.8875    528.67752    360.83803    724.11457    34340.171 
  989200    298.40512   -1510.3118    551.52112    399.45899    137.38413    34340.171 
  989300    301.56046   -1529.7368    500.91427    343.78928    293.43677    34340.171 
  989400    299.04755   -1551.5109    532.99215    342.65504   -97.037997    34340.171 
  989500    318.50103   -1526.5955    501.26978    424.39444     459.6998    34340.171 
  989600    304.85594   -1573.4314    521.78728    335.96773    393.17516    34340.171 
  989700     302.9193   -1520.6254    506.19395    364.36542    301.62738    34340.171 
  989800    289.23879   -1544.0939    523.20139    295.63479    -274.8689    34340.171 
  989900    306.23018   -1530.0969    546.08406    409.85412    523.47655    34340.171 
  990000    295.37674   -1538.4626    557.60305    363.60582    725.55759    34340.171 
  990100    290.62922   -1537.6696    528.57583    313.76234   -149.22807    34340.171 
  990200    290.37231   -1549.2833    532.33317    304.73666   -671.06803    34340.171 
  990300    295.66937   -1545.4088    519.36365    319.75223   -558.92896    34340.171 
  990400     300.4405   -1553.7837     512.6034    326.33383    -264.6343    34340.171 
  990500      292.993   -1510.6244    521.75143    344.74242    189.98046    34340.171 
  990600    296.13745   -1520.8344    526.64447    353.73805    589.35903    34340.171 
  990700    309.55181   -1483.6857    531.54913    456.84942    1228.8901    34340.171 
  990800    293.38474   -1508.6737    507.83514    334.55987    410.49504    34340.171 
  990900    298.50982   -1524.3485    551.07797    385.45564    1087.1592    34340.171 
  991000    305.43776   -1507.2643    537.52636    420.52224    991.30178    34340.171 
  991100    299.74086   -1555.5351    517.83503    326.62952    180.47709    34340.171 
  991200    291.06551   -1531.0662    530.98761     324.7634    242.67566    34340.171 
  991300    297.69445   -1558.4741    521.42971    317.97049   -80.477456    34340.171 
  991400    301.62648     -1565.51     506.5511    313.95339   -96.399955    34340.171 
  991500    298.14038   -1552.5171    516.69311    321.22066    642.34459    34340.171 
  991600    298.08089   -1528.7273    533.08307    361.12962     188.1428    34340.171 
  991700    309.16243   -1531.5994    519.93683    395.55113    296.48162    34340.171 
  991800    299.51893   -1539.7969    525.59949    349.12204     431.7417    34340.171 
  991900    296.20244   -1581.4275    523.68979    290.48607   -252.60228    34340.171 
  992000    299.92427   -1540.4602    527.93268     352.6368    361.31331    34340.171 
  992100    303.10712    -1522.768    522.03588    378.91964    109.25015    34340.171 
  992200    312.58461   -1501.1141    509.39364    431.06995   -488.07612    34340.171 
  992300    296.46808   -1539.9386    478.84488    288.33913   -969.19447    34340.171 
  992400    295.27909   -1571.2173    510.36473    283.16836   -585.42469    34340.171 
  992500    302.10946   -1577.4966    504.17298    301.78706   -880.68999    34340.171 
  992600    302.83878   -1582.7589    516.81735    312.48882   -11.550943    34340.171 
  992700    303.27029   -1569.1165    506.06389     317.3418   -311.90817    34340.171 
  992800    301.28158   -1541.0182    511.70073    342.02501    53.374206    34340.171 
  992900    302.68181   -1563.0946    523.71731    338.33853    196.31936    34340.171 
  993000    292.46447    -1547.551    521.98599    305.64467   -967.68213    34340.171 
  993100    296.68113   -1534.7121    529.39023    345.08077   -682.02331    34340.171 
  993200    299.47827   -1509.9518    510.55885    363.74139   -791.65608    34340.171 
  993300    310.29896   -1514.9429    512.58312     410.0271   -577.37257    34340.171 
  993400    289.63306    -1475.634    520.01579    362.70367    -611.4734    34340.171 
  993500    304.04863    -1495.874    540.75392    428.81714    99.551575    34340.171 
  993600    303.56996   -1460.8115     519.9054    440.85237    1207.1331    34340.171 
  993700    299.18594    -1527.954    521.92981    355.77954    1067.9203    34340.171 
  993800    297.08606   -1519.6659     527.4807    360.06047    632.70061    34340.171 
  993900    298.00292   -1519.2248    523.40511    360.59933    840.05953    34340.171 
  994000    295.85011   -1488.6919      532.576    390.50415   -390.23949    34340.171 
  994100    297.44597   -1455.9289    521.00605      418.961     341.7612    34340.171 
  994200    293.64092   -1480.8798    528.87251    384.55717    331.10032    34340.171 
  994300    297.19427   -1545.5233    511.66421    318.87915   -229.92255    34340.171 
  994400    293.61566   -1519.8755    505.04836    321.62235    576.02474    34340.171 
  994500    300.85367   -1518.7612    497.03668     347.6702    1053.0701    34340.171 
  994600    305.82238   -1522.0418    529.34308    399.31203    495.84384    34340.171 
  994700    288.53741   -1532.1412    528.10465    309.29834    203.94139    34340.171 
  994800    307.29911     -1527.02     522.3178    394.03022   -187.80987    34340.171 
  994900    296.59114   -1539.8635    497.84799    307.97745    448.79793    34340.171 
  995000    295.92938    -1505.402    487.05779    328.63665     327.2341    34340.171 
  995100    297.30087   -1542.2944    519.69933    330.62841    267.39015    34340.171 
  995200    302.14933   -1499.0062    540.21001    416.49603    532.90827    34340.171 
  995300    297.32739   -1529.3538    510.92846    334.91888    64.306091    34340.171 
  995400     291.8691   -1472.6775     518.6383    374.46047    237.66074    34340.171 
  995500    305.71079   -1501.4099    505.96322    396.05624   -39.312967    34340.171 
  995600    304.40557    -1486.182    524.03559     423.4155    302.08183    34340.171 
  995700    307.99118   -1538.6758    505.44178    368.64847    878.59504    34340.171 
  995800    285.01645    -1523.925    505.26309    278.64661    112.13196    34340.171 
  995900    308.22749   -1560.7892    508.30093    350.46981    566.81353    34340.171 
  996000    304.33496   -1557.5035    499.33306    327.07008   -155.40724    34340.171 
  996100    283.20991   -1515.7771    504.42659    277.73518   -784.92805    34340.171 
  996200    303.33912   -1522.7867    482.02598    339.94703   -962.13314    34340.171 
  996300    287.74736   -1496.6053    502.91566     316.0491   -656.98563    34340.171 
  996400     293.2336   -1488.4005    496.95721     343.2672   -630.57851    34340.171 
  996500    309.24551    -1503.304    523.18825    427.47608    -431.7601    34340.171 
  996600    290.87776   -1482.5168    500.14108    341.61171   -132.02539    34340.171 
  996700    294.98204   -1497.3896    521.69076    366.97004   -248.55717    34340.171 
  996800    294.12512   -1475.3306    510.79541    374.23323   -327.57661    34340.171 
  996900    304.18427   -1478.2031    514.56978    420.92129    543.14225    34340.171 
  997000    287.35944   -1439.9732    529.43835    397.43827   -321.10601    34340.171 
  997100    301.70328   -1454.7849    538.77654    457.25349   -212.76828    34340.171 
  997200    307.26187   -1459.8831    544.33228    483.01213    517.85595    34340.171 
  997300    295.14965   -1497.1048    547.91894    394.24593    962.27047    34340.171 
  997400     296.2984   -1484.3577    529.91577    394.21861    532.58595    34340.171 
  997500    300.42168   -1501.3128    501.60185    367.71745    442.66946    34340.171 
  997600    295.75078   -1469.0627    544.86478    421.97004    5.4141575    34340.171 
  997700    306.33009    -1504.574    505.05729    394.80497   -62.245361    34340.171 
  997800     300.4148   -1520.4842    531.07186    377.98477    50.341768    34340.171 
  997900    300.80853   -1515.1223    512.85539    366.92239     277.0519    34340.171 
  998000    305.53655   -1475.0072    507.20657    422.90909   -168.99675    34340.171 
  998100    298.72234    -1535.835    506.70457    330.56311    -293.9079    34340.171 
  998200    309.88881   -1488.0371    543.30879    465.79167   -848.82069    34340.171 
  998300    293.96944   -1523.8156    489.18037    303.42459   -374.04377    34340.171 
  998400    294.82124   -1548.9004    514.35517    307.39177    -497.3383    34340.171 
  998500    303.08447   -1507.0265    523.94213    396.46424   -21.939843    34340.171 
  998600    288.51562   -1519.1264      523.306    317.41526   -502.10079    34340.171 
  998700      303.422   -1507.0644    509.33689    383.35749   -180.85568    34340.171 
  998800    298.21745   -1523.3465    495.84476    329.89376   -1240.8975    34340.171 
  998900    299.96208   -1527.8383    521.63003    359.12819   -728.58462    34340.171 
  999000    296.98558    -1561.157    498.33583    288.96713   -1122.8653    34340.171 
  999100    300.67209   -1531.9515    492.87389    329.49064   -654.00802    34340.171 
  999200    302.01607   -1521.4272    504.78452    358.04297    -490.1992    34340.171 
  999300    295.78153   -1479.2783    511.90501    378.93465   -366.20884    34340.171 
  999400    304.11368   -1513.4903     528.0452    398.78823   -41.571737    34340.171 
  999500    294.14268   -1557.6603    514.86891    296.05692    244.04902    34340.171 
  999600    301.24718   -1567.9524    517.35882    320.59231    748.58095    34340.171 
  999700    299.62725   -1502.7308     538.9278    400.00943    -208.4944    34340.171 
  999800    296.08906   -1551.7344    528.66245    324.63573   -646.88377    34340.171 
  999900    304.02212   -1544.3678    521.84843    361.29718   -143.11063    34340.171 
 1000000    299.05313   -1532.0899    527.05156    356.16086   -133.92693    34340.171 
 1000100    303.40939   -1514.5033    507.19795    373.72224    12.066939    34340.171 
 1000200    303.76434   -1485.8904    536.15487    432.90768    119.49582    34340.171 
 1000300    305.55836   -1529.9159    540.82049    401.71366    44.196888    34340.171 
 1000400    294.25884   -1585.3191    515.14079    269.19871   -111.10615    34340.171 
 1000500    287.82389   -1579.7751    498.09867    228.41066    61.773197    34340.171 
 1000600    290.58385   -1574.6583    526.48535    274.47666    201.43375    34340.171 
 1000700     303.3107   -1510.1363    532.78537     403.2275    282.02163    34340.171 
 1000800     302.1762   -1525.3557    519.65369    369.71251    217.88339    34340.171 
 1000900    291.06338   -1560.5352    494.85759    259.15462   -32.473599    34340.171 
 1001000    298.55226    -1561.198    518.48198    316.20347   -217.21452    34340.171 
 1001100    300.49075   -1532.1851     541.0575    376.61526    664.49601    34340.171 
 1001200    297.98127   -1578.8387    518.40121    295.88295    172.42815    34340.171 
 1001300    300.41049   -1538.6682    542.49966    371.20895    710.71308    34340.171 
 1001400    296.45824   -1538.1051    496.61835    307.90129    167.37387    34340.171 
 1001500    297.33074   -1552.4535    526.60043    327.50636   -32.046696    34340.171 
 1001600    292.11029   -1547.6945    519.66676    301.56982     196.2742    34340.171 
 1001700    292.76724   -1534.2317    491.63791      289.994   -756.77176    34340.171 
 1001800    308.02194    -1485.611    545.52997    461.94147    5.0990733    34340.171 
 1001900    302.51389   -1487.0937    526.68752    416.54537   -58.821213    34340.171 
 1002000    301.22147   -1552.4834    527.12043    345.70586    352.59128    34340.171 
 1002100    305.09708   -1534.5625    516.76085    370.90784   -1.5750143    34340.171 
 1002200    300.71638   -1535.4788     533.2705    366.56156    128.93716    34340.171 
 1002300    294.87059   -1512.3072    505.83403    335.68844    42.972734    34340.171 
 1002400    294.82299   -1533.7999     507.8999    316.04488   -249.68746    34340.171 
 1002500    290.32365   -1542.7073    521.27425    300.03223    271.62927    34340.171 
 1002600    296.48198   -1553.6715    508.37405    304.19868       166.98    34340.171 
 1002700    309.75696   -1511.5412    522.00818    420.38679    470.10102    34340.171 
 1002800    291.26488   -1536.2054    520.09605    309.64016    264.10702    34340.171 
 1002900    289.75724   -1473.8796    521.51078     366.5183    1053.9999    34340.171 
 1003000      308.823   -1502.3252    551.23632    454.57984    150.53187    34340.171 
 1003100    289.58052   -1549.3495    509.15339    277.88664    183.23116    34340.171 
 1003200    298.91907   -1516.4206    520.25919    364.42764    530.26816    34340.171 
 1003300    312.74719    -1559.927    528.28473    391.88822    640.09725    34340.171 
 1003400    297.25045   -1513.1979    545.13904    384.93509    865.62925    34340.171 
 1003500    304.79935   -1503.9867    527.86234    411.22993    473.13257    34340.171 
 1003600     304.8836   -1553.7562    517.80715    351.78875    206.21091    34340.171 
 1003700     309.6202   -1509.7275    530.29737    429.86723   -233.67655    34340.171 
 1003800    296.86819   -1529.5224    512.37536    334.10697    335.79079    34340.171 
 1003900    294.13749   -1543.6059     513.6456    308.86443    186.72022    34340.171 
 1004000    297.91655   -1532.3772     507.7852    331.43383    454.25654    34340.171 
 1004100     299.2759   -1546.7129    537.93724    353.43753    38.325083    34340.171 
 1004200    309.07093   -1524.5412    524.00166    406.25762    294.50045    34340.171 
 1004300     305.0556   -1547.4177    524.42366    365.52665    1072.4029    34340.171 
 1004400    296.24874    -1571.712     525.6235    302.34597    238.14005    34340.171 
 1004500    306.92833   -1513.1956    496.75823    380.60736    119.99678    34340.171 
 1004600    296.00808   -1453.7419    522.39825    415.99543   -847.13667    34340.171 
 1004700    306.24071   -1553.7851    526.97101     367.1008   -865.38646    34340.171 
 1004800    292.19441   -1487.7791    510.89307    353.09432   -209.21736    34340.171 
 1004900    302.33886   -1483.4197    522.20387      414.939   -523.47131    34340.171 
 1005000    295.45825   -1501.2793     516.4594    360.01658   -193.42788    34340.171 
 1005100     297.4222   -1514.2266    523.80624    363.35534    235.62857    34340.171 
 1005200    301.21941   -1480.9608    508.07704    398.17576   -516.21071    34340.171 
 1005300     300.2793   -1477.4289    531.58276    420.93429   -29.622054    34340.171 
 1005400    296.78995   -1521.1628    524.10982    353.84493   -611.48399    34340.171 
 1005500    302.18892   -1506.1009    534.38969    403.76119    302.52055    34340.171 
 1005600    304.58398   -1551.9977    517.15554    351.53185    46.574534    34340.171 
 1005620    298.93883   -1562.7249    520.34895    318.30303    163.36253    34340.171 
Loop time of 602.765 on 32 procs for 1000000 steps with 1528 atoms

Performance: 143.339 ns/day, 0.167 hours/ns, 1659.021 timesteps/s
100.0% CPU use with 32 MPI tasks x no OpenMP threads

MPI task timing breakdown:
Section |  min time  |  avg time  |  max time  |%varavg| %total
---------------------------------------------------------------
Pair    | 268.46     | 296.22     | 321.72     |  60.1 | 49.14
Bond    | 1.4643     | 1.6871     | 2.073      |  10.4 |  0.28
Neigh   | 38.485     | 38.565     | 38.639     |   0.9 |  6.40
Comm    | 227.28     | 252.72     | 280.51     |  64.8 | 41.93
Output  | 0.39525    | 0.41145    | 0.86048    |  12.6 |  0.07
Modify  | 10.135     | 10.304     | 10.544     |   3.6 |  1.71
Other   |            | 2.864      |            |       |  0.48

Nlocal:        47.7500 ave          68 max          19 min
Histogram: 1 2 1 1 4 6 7 5 4 1
Nghost:        2143.84 ave        2254 max        2041 min
Histogram: 2 6 4 4 1 1 2 5 6 1
Neighs:        5723.66 ave        8896 max        2178 min
Histogram: 2 2 1 2 5 6 9 1 2 2

Total # of neighbors = 183157
Ave neighs/atom = 119.86715
Ave special neighs/atom = 2.0628272
Neighbor list builds = 49449
Dangerous builds = 0

# Output the system volume
variable v equal vol
print 'The system volume is $v'
The system volume is 34340.17071631

# Outputs
variable A equal xhi-xlo
variable B equal yhi-ylo
variable C equal zhi-zlo
variable D equal xy
variable E equal xz
variable F equal yz
print 'Lattice vectors'
Lattice vectors
print '$A 0 0'
32.5038009649357 0 0
print '$D $B 0'
0 32.5038009649357 0
print '$E $F $C'
0 0 32.5038009649357
Total wall time: 0:10:07
