LAMMPS data file
 1535 atoms
 1039 bonds
 565 angles
 103 dihedrals
 19 impropers
 6 atom types
 9 bond types
 4 angle types
 5 dihedral types
 1 improper types
 0 15 xlo xhi
 0 15 ylo yhi
 0 15 zlo zhi
 0 0 0 xy xz yz

# Atom types
#
# 1 C_R
# 2 O_3
# 3 C_3
# 4 C_2
# 5 H_
# 6 H__HB

# Bond Coeffs
#
# 1 C_R*C_R
# 2 C_R*C_3
# 3 C_R*O_3
# 4 O_3*C_3
# 5 O_3*C_2
# 6 C_R*C_2
# 7 C_R*H_
# 8 C_2*H_
# 9 O_3*H__HB

# Angle Coeffs
#
# 1 C_R
# 2 O_3
# 3 C_3
# 4 C_2

# Dihedral Coeffs
#
# 1 D1
# 2 B1
# 3 I1
# 4 A1
# 5 E1

# Inversion Coeffs
#
# 1 1

 Masses

 1 12.01
 2 16
 3 12.01
 4 12.01
 5 1.01
 6 1.01

 Atoms # full

1 1 1 0 11.2401654107182 3.44105744272415 9.22661169196407
2 1 1 0 10.4536597426676 3.66300154305918 8.08171657430011
3 1 1 0 11.774439739097 4.53049550784867 9.93714878057602
4 1 1 0 10.188565031086 4.97802533357906 7.62397623933037
5 1 1 0 11.5149195704293 5.84290314782358 9.50275368554138
6 1 1 0 10.7241815881049 6.06538557341709 8.35949494246894
7 1 2 0 10.4753421176012 7.34588055363498 7.97648384138145
8 1 1 0 9.11932397789729 6.69570639168703 6.09193383038963
9 1 1 0 8.30746320197041 7.11060534739551 5.00664410084115
10 1 1 0 9.71075377939895 7.69334019086519 6.90743495401429
11 1 1 0 8.10570939155228 8.4762095167994 4.73581078958038
12 1 1 0 9.51215319294584 9.05989154320299 6.63358004994241
13 1 1 0 8.71014742884681 9.45278185475861 5.54691980062911
14 1 3 0 9.36875641461426 5.24302656492308 6.39122392448978
15 1 2 0 8.10638892680138 4.56069581468842 6.50636867251249
16 1 1 0 9.94571400136755 4.55231965902649 5.21447062696537
17 1 1 0 9.07036659739875 3.57466654878889 4.73665219030996
18 1 4 0 7.94549663101439 3.6086396629139 5.55528394283554
19 1 1 0 11.1861414706459 4.77126081885824 4.58626319944537
20 1 1 0 11.5217927641945 3.99601513511732 3.45990501974399
21 1 1 0 9.39315227037545 2.7640842234803 3.62455190561514
22 1 1 0 10.6312426027996 3.01229279297827 2.97848372439452
23 1 5 0 11.4232209745241 2.48510128240315 9.54039316067129
24 1 5 0 10.0776074052137 2.85439114199391 7.58157664509582
25 1 5 0 11.8988238107849 6.63676923294063 10.0206700814373
26 1 5 0 7.85829053747485 6.41960183062652 4.40167550886067
27 1 5 0 7.51892499497999 8.75675125119032 3.94666465786318
28 1 5 0 9.94912962710081 9.76856001143206 7.2275195234
29 1 5 0 11.8295377308255 5.48399795844218 4.93694743382811
30 1 5 0 12.4136544619097 4.15188346600854 2.98484944870652
31 1 5 0 8.49248978249284 1.84029697938932 3.20596272685405
32 1 5 0 10.8902449189511 2.49095845697898 2.13920562368158
33 1 5 0 6.92711921482213 2.88822008401414 5.4569976338832
34 1 5 0 8.51604520069001 10.7649458999308 5.280603834938
35 1 5 0 12.5331896659273 4.31221640003295 11.0357806659799
36 2 6 0 9.57439512756653 14.725610319702 0.0965552846901119
37 2 2 0 10.5343951275665 14.725610319702 0.0965552846901119
38 2 6 0 10.7743951275665 13.795610319702 0.0965552846901119
39 3 6 0 13.2904881220032 13.1586129071098 13.8559017609805
40 3 2 0 14.2504881220032 13.1586129071098 13.8559017609805
41 3 6 0 14.4904881220032 12.2286129071098 13.8559017609805
42 4 6 0 8.27554468807764 3.69149175047874 11.179012474604
43 4 2 0 9.23554468807764 3.69149175047874 11.179012474604
44 4 6 0 9.47554468807764 2.76149175047874 11.179012474604
45 5 6 0 2.81329697158188 13.474787493879 5.68717641639523
46 5 2 0 3.77329697158188 13.474787493879 5.68717641639523
47 5 6 0 4.01329697158188 12.544787493879 5.68717641639523
48 6 6 0 7.15405510665849 13.3879092246667 2.66993562108837
49 6 2 0 8.11405510665849 13.3879092246667 2.66993562108837
50 6 6 0 8.35405510665849 12.4579092246667 2.66993562108837
51 7 6 0 5.6982040700689 8.03718588705175 7.14405135135166
52 7 2 0 6.6582040700689 8.03718588705175 7.14405135135166
53 7 6 0 6.8982040700689 7.10718588705175 7.14405135135166
54 8 6 0 -0.464468894787133 10.2142803328484 10.1357807102613
55 8 2 0 0.495531105212867 10.2142803328484 10.1357807102613
56 8 6 0 0.735531105212867 9.28428033284843 10.1357807102613
57 9 6 0 8.53715750316158 13.7840665298887 13.2801819127053
58 9 2 0 9.49715750316158 13.7840665298887 13.2801819127053
59 9 6 0 9.73715750316158 12.8540665298887 13.2801819127053
60 10 6 0 13.5509878727328 0.350388870984316 9.29290505941026
61 10 2 0 14.5109878727328 0.350388870984316 9.29290505941026
62 10 6 0 14.7509878727328 -0.579611129015684 9.29290505941026
63 11 6 0 11.3027291376796 11.639951492371 11.2745389470365
64 11 2 0 12.2627291376796 11.639951492371 11.2745389470365
65 11 6 0 12.5027291376796 10.709951492371 11.2745389470365
66 12 6 0 10.4219840971939 14.3772811004333 7.20445585437119
67 12 2 0 11.3819840971939 14.3772811004333 7.20445585437119
68 12 6 0 11.6219840971939 13.4472811004333 7.20445585437119
69 13 6 0 3.36688496332616 12.609089768203 14.1143138031475
70 13 2 0 4.32688496332616 12.609089768203 14.1143138031475
71 13 6 0 4.56688496332616 11.679089768203 14.1143138031475
72 14 6 0 10.7153235682938 6.87501849647611 1.29766803584062
73 14 2 0 11.6753235682938 6.87501849647611 1.29766803584062
74 14 6 0 11.9153235682938 5.94501849647611 1.29766803584062
75 15 6 0 7.9236670110561 12.3125650097523 14.2828047182411
76 15 2 0 8.8836670110561 12.3125650097523 14.2828047182411
77 15 6 0 9.1236670110561 11.3825650097523 14.2828047182411
78 16 6 0 6.26132275370881 3.48768704611808 5.29099012725055
79 16 2 0 7.22132275370881 3.48768704611808 5.29099012725055
80 16 6 0 7.46132275370881 2.55768704611808 5.29099012725055
81 17 6 0 3.231178266434 7.4673997172527 7.79001405229792
82 17 2 0 4.191178266434 7.4673997172527 7.79001405229792
83 17 6 0 4.431178266434 6.5373997172527 7.79001405229792
84 18 6 0 3.5398108202219 9.03936407802627 3.12224047374912
85 18 2 0 4.4998108202219 9.03936407802627 3.12224047374912
86 18 6 0 4.7398108202219 8.10936407802627 3.12224047374912
87 19 6 0 11.9423718556948 8.15441942814738 4.44005988654681
88 19 2 0 12.9023718556948 8.15441942814738 4.44005988654681
89 19 6 0 13.1423718556948 7.22441942814738 4.44005988654681
90 20 6 0 12.1748687436059 4.92426388239488 4.13658909732476
91 20 2 0 13.1348687436059 4.92426388239488 4.13658909732476
92 20 6 0 13.3748687436059 3.99426388239488 4.13658909732476
93 21 6 0 12.6149192957394 1.47269619436935 13.3472609880846
94 21 2 0 13.5749192957394 1.47269619436935 13.3472609880846
95 21 6 0 13.8149192957394 0.542696194369346 13.3472609880846
96 22 6 0 8.52863142776303 9.08771258237772 9.70417697913945
97 22 2 0 9.48863142776303 9.08771258237772 9.70417697913945
98 22 6 0 9.72863142776303 8.15771258237772 9.70417697913945
99 23 6 0 4.22168801349588 6.71037285978906 2.6633777807001
100 23 2 0 5.18168801349588 6.71037285978906 2.6633777807001
101 23 6 0 5.42168801349588 5.78037285978906 2.6633777807001
102 24 6 0 4.15043534056284 3.0912015300151 6.74186223652214
103 24 2 0 5.11043534056284 3.0912015300151 6.74186223652214
104 24 6 0 5.35043534056284 2.1612015300151 6.74186223652214
105 25 6 0 9.42418001286685 8.39458665153012 5.40969479363412
106 25 2 0 10.3841800128669 8.39458665153012 5.40969479363412
107 25 6 0 10.6241800128669 7.46458665153012 5.40969479363412
108 26 6 0 12.6505362898763 9.72320821060799 10.3887240041513
109 26 2 0 13.6105362898763 9.72320821060799 10.3887240041513
110 26 6 0 13.8505362898763 8.79320821060799 10.3887240041513
111 27 6 0 1.38473522194661 10.134867611751 0.812503953929991
112 27 2 0 2.34473522194661 10.134867611751 0.812503953929991
113 27 6 0 2.58473522194661 9.20486761175096 0.812503953929991
114 28 6 0 9.38222377139144 1.23085712356493 1.84889850905165
115 28 2 0 10.3422237713914 1.23085712356493 1.84889850905165
116 28 6 0 10.5822237713914 0.300857123564929 1.84889850905165
117 29 6 0 2.76451851401478 8.83289445581846 2.12428065366112
118 29 2 0 3.72451851401478 8.83289445581846 2.12428065366112
119 29 6 0 3.96451851401478 7.90289445581846 2.12428065366112
120 30 6 0 4.70657393496484 6.77823162329383 4.31404471979477
121 30 2 0 5.66657393496484 6.77823162329383 4.31404471979477
122 30 6 0 5.90657393496484 5.84823162329383 4.31404471979477
123 31 6 0 4.38279427282512 12.5086146445852 10.5996306636371
124 31 2 0 5.34279427282512 12.5086146445852 10.5996306636371
125 31 6 0 5.58279427282512 11.5786146445852 10.5996306636371
126 32 6 0 7.63856219753623 6.00204881321639 3.1809467158746
127 32 2 0 8.59856219753623 6.00204881321639 3.1809467158746
128 32 6 0 8.83856219753623 5.07204881321639 3.1809467158746
129 33 6 0 0.932857298031449 12.9314926328976 13.687489181757
130 33 2 0 1.89285729803145 12.9314926328976 13.687489181757
131 33 6 0 2.13285729803145 12.0014926328976 13.687489181757
132 34 6 0 0.415115936631337 10.0604721651785 3.32195761729963
133 34 2 0 1.37511593663134 10.0604721651785 3.32195761729963
134 34 6 0 1.61511593663134 9.13047216517851 3.32195761729963
135 35 6 0 0.0656740686111152 2.15635073179379 2.12939451565035
136 35 2 0 1.02567406861112 2.15635073179379 2.12939451565035
137 35 6 0 1.26567406861112 1.22635073179379 2.12939451565035
138 36 6 0 10.5201878647506 11.6072455122508 13.6068877251819
139 36 2 0 11.4801878647506 11.6072455122508 13.6068877251819
140 36 6 0 11.7201878647506 10.6772455122508 13.6068877251819
141 37 6 0 5.42861228386872 2.85069310380146 8.98292467463762
142 37 2 0 6.38861228386872 2.85069310380146 8.98292467463762
143 37 6 0 6.62861228386872 1.92069310380146 8.98292467463762
144 38 6 0 0.512442171312869 4.70874771051109 8.28094484517351
145 38 2 0 1.47244217131287 4.70874771051109 8.28094484517351
146 38 6 0 1.71244217131287 3.77874771051109 8.28094484517351
147 39 6 0 5.74423524711281 11.0722633897699 14.865762378322
148 39 2 0 6.70423524711281 11.0722633897699 14.865762378322
149 39 6 0 6.94423524711281 10.1422633897699 14.865762378322
150 40 6 0 12.1112857844867 9.53440937254578 5.79447775846347
151 40 2 0 13.0712857844867 9.53440937254578 5.79447775846347
152 40 6 0 13.3112857844867 8.60440937254578 5.79447775846347
153 41 6 0 1.9645254516229 8.52294608293101 1.72013454255648
154 41 2 0 2.9245254516229 8.52294608293101 1.72013454255648
155 41 6 0 3.1645254516229 7.59294608293101 1.72013454255648
156 42 6 0 11.1094975545723 8.76468442072161 12.6239668170456
157 42 2 0 12.0694975545723 8.76468442072161 12.6239668170456
158 42 6 0 12.3094975545723 7.83468442072161 12.6239668170456
159 43 6 0 12.2157268859167 2.77721671894193 9.26856311853044
160 43 2 0 13.1757268859167 2.77721671894193 9.26856311853044
161 43 6 0 13.4157268859167 1.84721671894193 9.26856311853044
162 44 6 0 11.8485234647244 11.0409256400913 1.4962068235036
163 44 2 0 12.8085234647244 11.0409256400913 1.4962068235036
164 44 6 0 13.0485234647244 10.1109256400913 1.4962068235036
165 45 6 0 8.24338623482734 4.03622240218334 3.49047376890667
166 45 2 0 9.20338623482734 4.03622240218334 3.49047376890667
167 45 6 0 9.44338623482734 3.10622240218334 3.49047376890667
168 46 6 0 6.84706842337735 6.82329229120165 0.661057125544176
169 46 2 0 7.80706842337735 6.82329229120165 0.661057125544176
170 46 6 0 8.04706842337735 5.89329229120165 0.661057125544176
171 47 6 0 7.54703636208549 10.6107727640215 12.1818928385619
172 47 2 0 8.50703636208549 10.6107727640215 12.1818928385619
173 47 6 0 8.74703636208549 9.68077276402153 12.1818928385619
174 48 6 0 2.90980491598137 10.5340493067075 8.44669218873605
175 48 2 0 3.86980491598137 10.5340493067075 8.44669218873605
176 48 6 0 4.10980491598137 9.60404930670746 8.44669218873605
177 49 6 0 5.30773757418618 9.70987996825948 2.1295437659137
178 49 2 0 6.26773757418618 9.70987996825948 2.1295437659137
179 49 6 0 6.50773757418618 8.77987996825948 2.1295437659137
180 50 6 0 4.21456003256142 9.86935179488733 7.84776860615239
181 50 2 0 5.17456003256142 9.86935179488733 7.84776860615239
182 50 6 0 5.41456003256142 8.93935179488733 7.84776860615239
183 51 6 0 9.8523435874097 0.477389386333525 4.68641143175773
184 51 2 0 10.8123435874097 0.477389386333525 4.68641143175773
185 51 6 0 11.0523435874097 -0.452610613666475 4.68641143175773
186 52 6 0 8.84075108028017 6.27681747236289 11.5066619636491
187 52 2 0 9.80075108028017 6.27681747236289 11.5066619636491
188 52 6 0 10.0407510802802 5.34681747236289 11.5066619636491
189 53 6 0 10.2197244849242 3.71475176926702 11.2108636996709
190 53 2 0 11.1797244849242 3.71475176926702 11.2108636996709
191 53 6 0 11.4197244849242 2.78475176926702 11.2108636996709
192 54 6 0 4.65643774179742 9.46258429595269 8.61803315696307
193 54 2 0 5.61643774179742 9.46258429595269 8.61803315696307
194 54 6 0 5.85643774179742 8.53258429595269 8.61803315696307
195 55 6 0 10.0000227538124 0.523626737240702 11.5924615727272
196 55 2 0 10.9600227538124 0.523626737240702 11.5924615727272
197 55 6 0 11.2000227538124 -0.406373262759298 11.5924615727272
198 56 6 0 11.6152723137941 13.3732367974613 11.2503353983629
199 56 2 0 12.5752723137941 13.3732367974613 11.2503353983629
200 56 6 0 12.8152723137941 12.4432367974613 11.2503353983629
201 57 6 0 10.7399318860564 4.07042296993546 11.2868827697821
202 57 2 0 11.6999318860564 4.07042296993546 11.2868827697821
203 57 6 0 11.9399318860564 3.14042296993546 11.2868827697821
204 58 6 0 12.2038689306658 14.3115291108284 8.34848729660735
205 58 2 0 13.1638689306658 14.3115291108284 8.34848729660735
206 58 6 0 13.4038689306658 13.3815291108284 8.34848729660735
207 59 6 0 12.2552743185963 7.14382776216604 7.10097028990276
208 59 2 0 13.2152743185963 7.14382776216604 7.10097028990276
209 59 6 0 13.4552743185963 6.21382776216604 7.10097028990276
210 60 6 0 10.1814630736783 13.8111340561323 10.3297165757976
211 60 2 0 11.1414630736783 13.8111340561323 10.3297165757976
212 60 6 0 11.3814630736783 12.8811340561323 10.3297165757976
213 61 6 0 10.9317580929212 12.1701946614217 3.72789143468253
214 61 2 0 11.8917580929212 12.1701946614217 3.72789143468253
215 61 6 0 12.1317580929212 11.2401946614217 3.72789143468253
216 62 6 0 6.24245961589739 2.55987188819796 14.8992135410663
217 62 2 0 7.20245961589739 2.55987188819796 14.8992135410663
218 62 6 0 7.44245961589739 1.62987188819796 14.8992135410663
219 63 6 0 12.0537821743358 8.40154034825042 0.466761690331623
220 63 2 0 13.0137821743358 8.40154034825042 0.466761690331623
221 63 6 0 13.2537821743358 7.47154034825042 0.466761690331623
222 64 6 0 1.55462839800864 8.41824521584436 2.46668958803639
223 64 2 0 2.51462839800864 8.41824521584436 2.46668958803639
224 64 6 0 2.75462839800865 7.48824521584436 2.46668958803639
225 65 6 0 1.43553967282176 1.29110923310742 9.71541643026285
226 65 2 0 2.39553967282176 1.29110923310742 9.71541643026285
227 65 6 0 2.63553967282176 0.361109233107418 9.71541643026285
228 66 6 0 0.298975276965648 7.77857743244618 2.17845670762472
229 66 2 0 1.25897527696565 7.77857743244618 2.17845670762472
230 66 6 0 1.49897527696565 6.84857743244618 2.17845670762472
231 67 6 0 12.306230953401 6.0454690763168 4.52585855615325
232 67 2 0 13.266230953401 6.0454690763168 4.52585855615325
233 67 6 0 13.506230953401 5.1154690763168 4.52585855615325
234 68 6 0 13.1019121901784 9.63209535851143 12.9407374619041
235 68 2 0 14.0619121901784 9.63209535851143 12.9407374619041
236 68 6 0 14.3019121901784 8.70209535851143 12.9407374619041
237 69 6 0 6.14820736038499 5.33699106815271 1.98602459742688
238 69 2 0 7.10820736038499 5.33699106815271 1.98602459742688
239 69 6 0 7.34820736038499 4.40699106815271 1.98602459742688
240 70 6 0 3.38549156600609 9.48192070744932 6.29585205344483
241 70 2 0 4.34549156600609 9.48192070744932 6.29585205344483
242 70 6 0 4.58549156600609 8.55192070744932 6.29585205344483
243 71 6 0 7.00920779767446 11.8065142658912 6.83201847597957
244 71 2 0 7.96920779767446 11.8065142658912 6.83201847597957
245 71 6 0 8.20920779767446 10.8765142658912 6.83201847597957
246 72 6 0 6.55890825597569 8.27972598531283 8.64651352982037
247 72 2 0 7.51890825597569 8.27972598531283 8.64651352982037
248 72 6 0 7.75890825597569 7.34972598531283 8.64651352982037
249 73 6 0 4.550833640825 5.61880472389981 7.08129952428862
250 73 2 0 5.510833640825 5.61880472389981 7.08129952428862
251 73 6 0 5.750833640825 4.68880472389981 7.08129952428862
252 74 6 0 7.91035386311822 3.72988502652384 2.87564686266705
253 74 2 0 8.87035386311822 3.72988502652384 2.87564686266705
254 74 6 0 9.11035386311822 2.79988502652384 2.87564686266705
255 75 6 0 -0.591742740506306 2.76972314383835 5.96622603130527
256 75 2 0 0.368257259493694 2.76972314383835 5.96622603130527
257 75 6 0 0.608257259493694 1.83972314383835 5.96622603130527
258 76 6 0 6.81757847822271 7.69398954970762 4.26923840073869
259 76 2 0 7.77757847822271 7.69398954970762 4.26923840073869
260 76 6 0 8.01757847822271 6.76398954970762 4.26923840073869
261 77 6 0 9.17139828365296 8.15012866555713 2.32428267365322
262 77 2 0 10.131398283653 8.15012866555713 2.32428267365322
263 77 6 0 10.371398283653 7.22012866555713 2.32428267365322
264 78 6 0 5.93400767466053 3.6270963160228 7.09900802001357
265 78 2 0 6.89400767466053 3.6270963160228 7.09900802001357
266 78 6 0 7.13400767466053 2.6970963160228 7.09900802001357
267 79 6 0 5.89603550892323 9.36288345413283 13.062223411398
268 79 2 0 6.85603550892323 9.36288345413283 13.062223411398
269 79 6 0 7.09603550892323 8.43288345413283 13.062223411398
270 80 6 0 5.61077973732725 9.48301056091674 6.55601431033574
271 80 2 0 6.57077973732725 9.48301056091674 6.55601431033574
272 80 6 0 6.81077973732725 8.55301056091674 6.55601431033574
273 81 6 0 12.682158357203 8.42271870392375 3.56004243018106
274 81 2 0 13.642158357203 8.42271870392375 3.56004243018106
275 81 6 0 13.882158357203 7.49271870392375 3.56004243018106
276 82 6 0 9.93931065590121 13.0978988324665 8.99080145638436
277 82 2 0 10.8993106559012 13.0978988324665 8.99080145638436
278 82 6 0 11.1393106559012 12.1678988324665 8.99080145638436
279 83 6 0 3.05268284792081 4.90564924007282 9.69670678605326
280 83 2 0 4.01268284792081 4.90564924007282 9.69670678605326
281 83 6 0 4.25268284792081 3.97564924007282 9.69670678605326
282 84 6 0 -0.0271182200219482 8.8469160422124 3.41011458425783
283 84 2 0 0.932881779978052 8.8469160422124 3.41011458425783
284 84 6 0 1.17288177997805 7.9169160422124 3.41011458425783
285 85 6 0 -0.0367542375158518 12.7844674016256 7.7454087138176
286 85 2 0 0.923245762484148 12.7844674016256 7.7454087138176
287 85 6 0 1.16324576248415 11.8544674016256 7.7454087138176
288 86 6 0 11.6397205756232 1.20285057620145 0.34470165730454
289 86 2 0 12.5997205756232 1.20285057620145 0.34470165730454
290 86 6 0 12.8397205756232 0.272850576201454 0.34470165730454
291 87 6 0 13.510234134011 13.8085350444913 1.31485172314569
292 87 2 0 14.470234134011 13.8085350444913 1.31485172314569
293 87 6 0 14.710234134011 12.8785350444913 1.31485172314569
294 88 6 0 3.55919677225873 7.74309061974287 4.52351540210657
295 88 2 0 4.51919677225873 7.74309061974287 4.52351540210657
296 88 6 0 4.75919677225873 6.81309061974287 4.52351540210657
297 89 6 0 10.3251208648738 14.322222585734 2.55439397413284
298 89 2 0 11.2851208648738 14.322222585734 2.55439397413284
299 89 6 0 11.5251208648738 13.392222585734 2.55439397413284
300 90 6 0 8.63744144953787 6.68141411425546 7.4331281252671
301 90 2 0 9.59744144953787 6.68141411425546 7.4331281252671
302 90 6 0 9.83744144953787 5.75141411425546 7.4331281252671
303 91 6 0 5.2084904517699 10.5785818029568 12.9835528729018
304 91 2 0 6.1684904517699 10.5785818029568 12.9835528729018
305 91 6 0 6.4084904517699 9.64858180295676 12.9835528729018
306 92 6 0 3.11857032400556 3.15847018658184 4.43002496729605
307 92 2 0 4.07857032400556 3.15847018658184 4.43002496729605
308 92 6 0 4.31857032400556 2.22847018658184 4.43002496729605
309 93 6 0 11.7270804794691 4.96106211369857 2.63613234157674
310 93 2 0 12.6870804794692 4.96106211369857 2.63613234157674
311 93 6 0 12.9270804794692 4.03106211369857 2.63613234157674
312 94 6 0 8.96275325023569 10.564808596801 13.7716033332981
313 94 2 0 9.92275325023569 10.564808596801 13.7716033332981
314 94 6 0 10.1627532502357 9.63480859680101 13.7716033332981
315 95 6 0 12.349038199028 9.94870545849204 4.75862705265172
316 95 2 0 13.309038199028 9.94870545849204 4.75862705265172
317 95 6 0 13.549038199028 9.01870545849204 4.75862705265172
318 96 6 0 4.8874092455674 2.01577288139611 0.105003128992394
319 96 2 0 5.8474092455674 2.01577288139611 0.105003128992394
320 96 6 0 6.0874092455674 1.08577288139611 0.105003128992394
321 97 6 0 10.3803389325924 15.1712388293259 3.23638386907987
322 97 2 0 11.3403389325924 15.1712388293259 3.23638386907987
323 97 6 0 11.5803389325924 14.2412388293259 3.23638386907987
324 98 6 0 1.95573668737896 14.3465243144333 10.9413742634933
325 98 2 0 2.91573668737896 14.3465243144333 10.9413742634933
326 98 6 0 3.15573668737896 13.4165243144333 10.9413742634933
327 99 6 0 9.73760555542074 0.385335277942941 10.8444231643807
328 99 2 0 10.6976055554207 0.385335277942941 10.8444231643807
329 99 6 0 10.9376055554207 -0.54466472205706 10.8444231643807
330 100 6 0 13.1133849131595 14.8810995898116 3.95279108779505
331 100 2 0 14.0733849131595 14.8810995898116 3.95279108779505
332 100 6 0 14.3133849131595 13.9510995898116 3.95279108779505
333 101 6 0 0.318954835385084 0.738230504039675 10.3316459432244
334 101 2 0 1.27895483538508 0.738230504039675 10.3316459432244
335 101 6 0 1.51895483538508 -0.191769495960325 10.3316459432244
336 102 6 0 7.4894021094963 14.4113485426083 0.205625966191292
337 102 2 0 8.4494021094963 14.4113485426083 0.205625966191292
338 102 6 0 8.6894021094963 13.4813485426083 0.205625966191292
339 103 6 0 12.5371989402641 6.03542985435575 5.33006886485964
340 103 2 0 13.4971989402641 6.03542985435575 5.33006886485964
341 103 6 0 13.7371989402641 5.10542985435575 5.33006886485964
342 104 6 0 11.2298188456055 10.3811382785812 9.48401325847954
343 104 2 0 12.1898188456055 10.3811382785812 9.48401325847954
344 104 6 0 12.4298188456055 9.4511382785812 9.48401325847954
345 105 6 0 12.0056293524988 1.12599607830867 5.96372311119922
346 105 2 0 12.9656293524988 1.12599607830867 5.96372311119922
347 105 6 0 13.2056293524988 0.195996078308672 5.96372311119922
348 106 6 0 2.21057870934717 13.4497641985677 12.1070820407476
349 106 2 0 3.17057870934717 13.4497641985677 12.1070820407476
350 106 6 0 3.41057870934717 12.5197641985677 12.1070820407476
351 107 6 0 8.07344645538367 11.224718498243 6.900627349969
352 107 2 0 9.03344645538367 11.224718498243 6.900627349969
353 107 6 0 9.27344645538367 10.294718498243 6.900627349969
354 108 6 0 10.2882143184263 9.523697174564 7.0869470865
355 108 2 0 11.2482143184263 9.523697174564 7.0869470865
356 108 6 0 11.4882143184263 8.593697174564 7.0869470865
357 109 6 0 5.88092534730211 12.7737565028388 0.145535501651466
358 109 2 0 6.84092534730211 12.7737565028388 0.145535501651466
359 109 6 0 7.08092534730211 11.8437565028388 0.145535501651466
360 110 6 0 10.1703942641336 4.03791780973785 2.28149023605511
361 110 2 0 11.1303942641336 4.03791780973785 2.28149023605511
362 110 6 0 11.3703942641336 3.10791780973785 2.28149023605511
363 111 6 0 11.5154135883506 9.00252425152808 5.830013937084
364 111 2 0 12.4754135883506 9.00252425152808 5.830013937084
365 111 6 0 12.7154135883506 8.07252425152809 5.830013937084
366 112 6 0 6.77343585572206 1.44116487511434 5.62529103364795
367 112 2 0 7.73343585572206 1.44116487511434 5.62529103364795
368 112 6 0 7.97343585572206 0.511164875114337 5.62529103364795
369 113 6 0 11.87321874124 12.533503155401 7.71429884713143
370 113 2 0 12.83321874124 12.533503155401 7.71429884713143
371 113 6 0 13.07321874124 11.603503155401 7.71429884713143
372 114 6 0 5.79435447740369 7.90089083294384 5.882856171811
373 114 2 0 6.75435447740369 7.90089083294384 5.882856171811
374 114 6 0 6.99435447740369 6.97089083294384 5.882856171811
375 115 6 0 2.68294316411018 0.931566927293316 12.7728601160925
376 115 2 0 3.64294316411018 0.931566927293316 12.7728601160925
377 115 6 0 3.88294316411018 0.00156692729331548 12.7728601160925
378 116 6 0 4.01345819860697 9.07365612377413 4.84688436146826
379 116 2 0 4.97345819860697 9.07365612377413 4.84688436146826
380 116 6 0 5.21345819860697 8.14365612377413 4.84688436146826
381 117 6 0 5.35626482960768 7.92848616413772 3.48533419892192
382 117 2 0 6.31626482960768 7.92848616413772 3.48533419892192
383 117 6 0 6.55626482960768 6.99848616413772 3.48533419892192
384 118 6 0 0.933145195450634 5.53325334488414 2.87824394297786
385 118 2 0 1.89314519545063 5.53325334488414 2.87824394297786
386 118 6 0 2.13314519545063 4.60325334488414 2.87824394297786
387 119 6 0 2.04856959331781 13.7127350111865 0.5907659442164
388 119 2 0 3.00856959331781 13.7127350111865 0.5907659442164
389 119 6 0 3.24856959331781 12.7827350111865 0.5907659442164
390 120 6 0 6.928960162187 9.59131344961003 1.51827296591364
391 120 2 0 7.888960162187 9.59131344961003 1.51827296591364
392 120 6 0 8.128960162187 8.66131344961003 1.51827296591364
393 121 6 0 3.13053040226921 14.6249960949086 4.67329349485226
394 121 2 0 4.09053040226921 14.6249960949086 4.67329349485226
395 121 6 0 4.33053040226921 13.6949960949086 4.67329349485226
396 122 6 0 2.32116162937135 4.97228584176861 7.20842440263368
397 122 2 0 3.28116162937135 4.97228584176861 7.20842440263368
398 122 6 0 3.52116162937135 4.04228584176861 7.20842440263368
399 123 6 0 -0.596474572811276 6.67720294482075 3.15011780709028
400 123 2 0 0.363525427188724 6.67720294482075 3.15011780709028
401 123 6 0 0.603525427188724 5.74720294482075 3.15011780709028
402 124 6 0 10.5070519312005 13.4420499174763 12.9076134134084
403 124 2 0 11.4670519312005 13.4420499174763 12.9076134134084
404 124 6 0 11.7070519312005 12.5120499174763 12.9076134134084
405 125 6 0 -0.368462069453672 1.10997215652838 10.9613082068972
406 125 2 0 0.591537930546328 1.10997215652838 10.9613082068972
407 125 6 0 0.831537930546328 0.179972156528383 10.9613082068972
408 126 6 0 9.61085396164097 5.00788681599311 3.03633818635717
409 126 2 0 10.570853961641 5.00788681599311 3.03633818635717
410 126 6 0 10.810853961641 4.07788681599312 3.03633818635717
411 127 6 0 8.23004768273793 13.1960838979017 11.0675653314684
412 127 2 0 9.19004768273793 13.1960838979017 11.0675653314684
413 127 6 0 9.43004768273793 12.2660838979017 11.0675653314684
414 128 6 0 11.7110373037588 9.12304413080216 9.11386184860021
415 128 2 0 12.6710373037588 9.12304413080216 9.11386184860021
416 128 6 0 12.9110373037588 8.19304413080216 9.11386184860021
417 129 6 0 1.88657151346095 15.250974037163 11.673842004966
418 129 2 0 2.84657151346095 15.250974037163 11.673842004966
419 129 6 0 3.08657151346095 14.320974037163 11.673842004966
420 130 6 0 10.2281930639595 12.8878421782888 3.17270144121721
421 130 2 0 11.1881930639595 12.8878421782888 3.17270144121721
422 130 6 0 11.4281930639595 11.9578421782888 3.17270144121721
423 131 6 0 9.97224147009663 10.594253192367 3.90265916939825
424 131 2 0 10.9322414700966 10.594253192367 3.90265916939825
425 131 6 0 11.1722414700966 9.66425319236703 3.90265916939825
426 132 6 0 0.719311645226553 7.16352978180163 9.24669373780489
427 132 2 0 1.67931164522655 7.16352978180163 9.24669373780489
428 132 6 0 1.91931164522655 6.23352978180163 9.24669373780489
429 133 6 0 4.26714189045131 9.02257207356393 14.0830668713897
430 133 2 0 5.22714189045131 9.02257207356393 14.0830668713897
431 133 6 0 5.46714189045131 8.09257207356393 14.0830668713897
432 134 6 0 10.0280489392765 11.5935939275101 9.99941421090625
433 134 2 0 10.9880489392765 11.5935939275101 9.99941421090625
434 134 6 0 11.2280489392765 10.6635939275101 9.99941421090625
435 135 6 0 12.8896497578546 2.09303445340134 7.72185361362062
436 135 2 0 13.8496497578546 2.09303445340134 7.72185361362062
437 135 6 0 14.0896497578546 1.16303445340134 7.72185361362062
438 136 6 0 12.2076890109759 11.8907224344462 7.8534644166939
439 136 2 0 13.1676890109759 11.8907224344462 7.8534644166939
440 136 6 0 13.4076890109759 10.9607224344462 7.8534644166939
441 137 6 0 12.0594684399851 5.24264463846572 2.75705836247653
442 137 2 0 13.0194684399851 5.24264463846572 2.75705836247653
443 137 6 0 13.2594684399851 4.31264463846572 2.75705836247653
444 138 6 0 4.67904980105348 1.41026562470011 2.68505963031203
445 138 2 0 5.63904980105348 1.41026562470011 2.68505963031203
446 138 6 0 5.87904980105348 0.480265624700114 2.68505963031203
447 139 6 0 3.15431548093446 11.0948408352584 0.190401098225266
448 139 2 0 4.11431548093446 11.0948408352584 0.190401098225266
449 139 6 0 4.35431548093446 10.1648408352584 0.190401098225266
450 140 6 0 12.8361904369388 3.087292720275 8.69238998740911
451 140 2 0 13.7961904369388 3.087292720275 8.69238998740911
452 140 6 0 14.0361904369388 2.157292720275 8.69238998740911
453 141 6 0 7.69806519543752 8.35606395540759 12.2399245505221
454 141 2 0 8.65806519543752 8.35606395540759 12.2399245505221
455 141 6 0 8.89806519543752 7.42606395540759 12.2399245505221
456 142 6 0 10.2794600457139 2.34937519108877 2.14529977412894
457 142 2 0 11.2394600457139 2.34937519108877 2.14529977412894
458 142 6 0 11.4794600457139 1.41937519108877 2.14529977412894
459 143 6 0 12.2098386129085 8.58061312971637 7.6892532245256
460 143 2 0 13.1698386129085 8.58061312971637 7.6892532245256
461 143 6 0 13.4098386129085 7.65061312971637 7.6892532245256
462 144 6 0 1.42163623633794 8.79220491549 7.77277029468678
463 144 2 0 2.38163623633795 8.79220491549 7.77277029468678
464 144 6 0 2.62163623633795 7.86220491549 7.77277029468678
465 145 6 0 12.2770552597661 3.13610054244287 0.181232455652207
466 145 2 0 13.2370552597661 3.13610054244287 0.181232455652207
467 145 6 0 13.4770552597661 2.20610054244287 0.181232455652207
468 146 6 0 7.11073298516683 2.70743567421101 3.75646208063699
469 146 2 0 8.07073298516683 2.70743567421101 3.75646208063699
470 146 6 0 8.31073298516683 1.77743567421101 3.75646208063699
471 147 6 0 9.53157174328342 4.55968106672168 7.0587022555992
472 147 2 0 10.4915717432834 4.55968106672168 7.0587022555992
473 147 6 0 10.7315717432834 3.62968106672168 7.0587022555992
474 148 6 0 1.47984375173226 9.99260045512579 4.87638202845119
475 148 2 0 2.43984375173226 9.99260045512579 4.87638202845119
476 148 6 0 2.67984375173226 9.06260045512579 4.87638202845119