LAMMPS (29 Sep 2021 - Update 1)
# Test LAMMPS input file for single DeFDe

# Initialize simulation

clear

units real
atom_style full
boundary p p p
dielectric 1
special_bonds dreiding

bond_style harmonic
angle_style harmonic
dihedral_style harmonic
improper_style umbrella
pair_style hybrid/overlay hbond/dreiding/lj 4 9.0 11.0 90 lj/cut 8.50000

# Read data file
read_data frag5.dat
Reading data file ...
  triclinic box = (0.0000000 0.0000000 0.0000000) to (15.000000 15.000000 15.000000) with tilt (0.0000000 0.0000000 0.0000000)
  2 by 4 by 4 MPI processor grid
  reading atoms ...
  1535 atoms
  scanning bonds ...
  3 = max bonds/atom
  scanning angles ...
  6 = max angles/atom
  scanning dihedrals ...
  10 = max dihedrals/atom
  scanning impropers ...
  2 = max impropers/atom
  reading bonds ...
  1039 bonds
  reading angles ...
  565 angles
  reading dihedrals ...
  103 dihedrals
  reading impropers ...
  19 impropers
Finding 1-2 1-3 1-4 neighbors ...
  special bond factors lj:    0        0        1       
  special bond factors coul:  0        0        1       
     4 = max # of 1-2 neighbors
     7 = max # of 1-3 neighbors
    11 = max # of special neighbors
  special bonds CPU = 0.002 seconds
  read_data CPU = 0.018 seconds

# Dreiding potential information

bond_coeff 1 525 1.39
bond_coeff 2 350 1.46
bond_coeff 3 350 1.35
bond_coeff 4 350 1.42
bond_coeff 5 350 1.32
bond_coeff 6 350 1.36
bond_coeff 7 350 1.02
bond_coeff 8 350 0.99
bond_coeff 9 350 0.98

angle_coeff 1 50 120
angle_coeff 2 50 104.51
angle_coeff 3 50 109.471
angle_coeff 4 50 120

dihedral_coeff 1 3.125 -1 2
dihedral_coeff 2 0.0833333333333333 -1 6
dihedral_coeff 3 0.5 -1 2
dihedral_coeff 4 0.333333333333333 -1 3
dihedral_coeff 5 0.625 -1 2

improper_coeff 1 40 0

pair_coeff 1 1 lj/cut 0.0951 3.8983
pair_coeff 1 2 lj/cut 0.0953995283007206 3.64309650983885
pair_coeff 1 3 lj/cut 0.0951 3.8983
pair_coeff 1 4 lj/cut 0.0951 3.8983
pair_coeff 1 5 lj/cut 0.0380199947396104 3.52917391183829
pair_coeff 1 6 lj/cut 0.00308382878902186 3.52806914614779
pair_coeff 2 2 lj/cut 0.0957 3.4046
pair_coeff 2 3 lj/cut 0.0953995283007206 3.64309650983885
pair_coeff 2 4 lj/cut 0.0953995283007206 3.64309650983885
pair_coeff 2 5 lj/cut 0.0381397430510485 3.29813538230316
pair_coeff 2 6 lj/cut 0.0030935416596516 3.29710294046152
pair_coeff 3 3 lj/cut 0.0951 3.8983
pair_coeff 3 4 lj/cut 0.0951 3.8983
pair_coeff 3 5 lj/cut 0.0380199947396104 3.52917391183829
pair_coeff 3 6 lj/cut 0.00308382878902186 3.52806914614779
pair_coeff 4 4 lj/cut 0.0951 3.8983
pair_coeff 4 5 lj/cut 0.0380199947396104 3.52917391183829
pair_coeff 4 6 lj/cut 0.00308382878902186 3.52806914614779
pair_coeff 5 5 lj/cut 0.0152 3.195
pair_coeff 5 6 lj/cut 0.0012328828005938 3.19399984345648
pair_coeff 6 6 lj/cut 1e-04 3.193
pair_coeff 2 2 hbond/dreiding/lj 6 j 9.50 2.75 4 9.0 11.0 90

neighbor 2 bin
neigh_modify every 2 one 10000

# Gemoetric relaxation
fix 1 all box/relax iso 1.0 vmax 0.001
minimize 1.0e-4 1.0e-6 10000 10000
WARNING: Using 'neigh_modify every 1 delay 0 check yes' setting during minimization (../min.cpp:188)
Neighbor list info ...
  update every 1 steps, delay 0 steps, check yes
  max neighbors/atom: 10000, page size: 100000
  master list distance cutoff = 13
  ghost atom cutoff = 13
  binsize = 6.5, bins = 3 3 3
  3 neighbor lists, perpetual/occasional/extra = 3 0 0
  (1) pair hbond/dreiding/lj, perpetual, skip from (3)
      attributes: full, newton on
      pair build: skip
      stencil: none
      bin: none
  (2) pair lj/cut, perpetual, half/full from (3)
      attributes: half, newton on
      pair build: halffull/newton
      stencil: none
      bin: none
  (3) neighbor class addition, perpetual
      attributes: full, newton on
      pair build: full/bin
      stencil: full/bin/3d
      bin: standard
Per MPI rank memory allocation (min/avg/max) = 15.02 | 15.45 | 16.10 Mbytes
Step Temp E_pair E_mol TotEng Press Volume 
       0            0 1.4415856e+16     304.1269 1.4415856e+16 1.1715228e+18         3375 
    6255            0   -1142.5802    94.016539   -1048.5636    119.19754    32966.302 
Loop time of 5.9578 on 32 procs for 6255 steps with 1535 atoms

99.9% CPU use with 32 MPI tasks x no OpenMP threads

Minimization stats:
  Stopping criterion = energy tolerance
  Energy initial, next-to-last, final = 
    1.44158557453281e+16  -1048.06481912553  -1048.13206616249
  Force two-norm initial, final = 1.5633056e+18 105.20956
  Force max component initial, final = 8.3211008e+17 79.752383
  Final line search alpha, max atom move = 1.7298492e-05 0.0013795960
  Iterations, force evaluations = 6255 6262

MPI task timing breakdown:
Section |  min time  |  avg time  |  max time  |%varavg| %total
---------------------------------------------------------------
Pair    | 1.3115     | 3.0365     | 5.0862     |  51.8 | 50.97
Bond    | 0.0068808  | 0.01511    | 0.044949   |   6.3 |  0.25
Neigh   | 0.10328    | 0.1038     | 0.10423    |   0.1 |  1.74
Comm    | 0.32922    | 2.3785     | 4.1119     |  58.7 | 39.92
Output  | 0          | 0          | 0          |   0.0 |  0.00
Modify  | 0          | 0          | 0          |   0.0 |  0.00
Other   |            | 0.4239     |            |       |  7.11

Nlocal:        47.9688 ave          71 max          22 min
Histogram: 1 0 5 4 4 5 5 4 1 3
Nghost:        2228.31 ave        2362 max        2098 min
Histogram: 5 10 1 0 0 0 1 3 7 5
Neighs:        5952.28 ave       10401 max        2440 min
Histogram: 2 5 5 1 5 7 1 3 1 2

Total # of neighbors = 190473
Ave neighs/atom = 124.08664
Ave special neighs/atom = 2.0899023
Neighbor list builds = 93
Dangerous builds = 0

# MD simulation
velocity all create 300.0 12345 rot yes dist gaussian
timestep 1.0
fix 2 all nvt temp 300.0 300.0 1

# Compute interaction energy
group WAT molecule <> 2 501
1500 atoms in group WAT
group MOL molecule 1
35 atoms in group MOL

compute w WAT group/group MOL pair yes
fix 3 all ave/time 10 5 100 c_w file outa

# Outputs
thermo 100 # Output thermodynamic data every nth step
#dump mf1 all xyz 10000 mol_*.xyz

# Run
run 1000000
Neighbor list info ...
  update every 2 steps, delay 10 steps, check yes
  max neighbors/atom: 10000, page size: 100000
  master list distance cutoff = 13
  ghost atom cutoff = 13
  binsize = 6.5, bins = 5 5 5
  4 neighbor lists, perpetual/occasional/extra = 3 1 0
  (1) pair hbond/dreiding/lj, perpetual, skip from (4)
      attributes: full, newton on
      pair build: skip
      stencil: none
      bin: none
  (2) pair lj/cut, perpetual, half/full from (4)
      attributes: half, newton on
      pair build: halffull/newton
      stencil: none
      bin: none
  (3) compute group/group, occasional, copy from (2)
      attributes: half, newton on
      pair build: copy
      stencil: none
      bin: none
  (4) neighbor class addition, perpetual
      attributes: full, newton on
      pair build: full/bin
      stencil: full/bin/3d
      bin: standard
Per MPI rank memory allocation (min/avg/max) = 13.87 | 14.00 | 14.57 Mbytes
Step Temp E_pair E_mol TotEng Press Volume 
    6255          300   -1142.5802    94.016539    323.20516    2021.3421    32966.302 
    6300    296.36894    -1098.633    322.88358    579.41612    2587.6418    32966.302 
    6400    305.65177   -1097.6577    263.79255    563.74675    2194.9867    32966.302 
    6500    312.32626   -1166.5061    244.28312    505.90843    1485.7419    32966.302 
    6600    302.03798     -1112.16    299.98534    568.91287    1002.7033    32966.302 
    6700    300.70539   -1103.4631      273.507    545.03809    516.85312    32966.302 
    6800      296.324   -1094.7491    271.62834    531.83929    439.61898    32966.302 
    6900    293.29381   -1129.8042     271.9402    483.24028    164.64149    32966.302 
    7000    300.02166   -1117.1387    282.42268    537.15179    541.30733    32966.302 
    7100    295.70657   -1114.5213    275.96614    513.58161   -186.96884    32966.302 
    7200    296.97308   -1133.5425     278.8833    503.26881    45.097197    32966.302 
    7300    304.62802   -1104.3553     283.1949    571.77029   -547.90344    32966.302 
    7400    296.17283   -1112.3192    296.98145    538.93105    505.55875    32966.302 
    7500    305.75153   -1114.4166    284.94867    568.60006     443.5298    32966.302 
    7600     296.1389   -1117.5199    297.75851    534.35227    296.94117    32966.302 
    7700    304.71297   -1108.2762    303.86661    588.90956    144.75391    32966.302 
    7800     304.2659   -1090.5225    280.65228     581.4046    662.33006    32966.302 
    7900    292.96862   -1056.4215     302.9084     586.1043     507.9732    32966.302 
    8000    307.33761    -1100.845    316.28778    620.76325    365.48496    32966.302 
    8100    287.35234   -1097.9421    305.12423    521.11868    397.97382    32966.302 
    8200    300.91527   -1105.9132    298.70528    568.74594    7.5496487    32966.302 
    8300    306.18941   -1106.7807    308.29343    601.58292      136.067    32966.302 
    8400    294.40162   -1091.1718    306.26093    561.25898    379.25084    32966.302 
    8500     299.7864   -1047.8422     304.5208    627.47074    108.19031    32966.302 
    8600     301.8481   -1051.5313    295.53377    624.22176     602.9964    32966.302 
    8700    307.23539   -1091.7962    308.05763     621.1145    274.18058    32966.302 
    8800    307.80354   -1087.8428    308.19231    627.80043    558.47477    32966.302 
    8900    299.68883   -1067.5084    299.25169     602.0892    894.88433    32966.302 
    9000    292.96697   -1079.9191    327.96595    587.65667    696.59019    32966.302 
    9100    295.67257   -1117.1465    309.99144    544.82624    805.22186    32966.302 
    9200    295.18262   -1109.3962     324.2389    564.58376     605.0449    32966.302 
    9300    307.65158   -1130.2518    309.61187    586.11616    782.76852    32966.302 
    9400    303.45847   -1102.6901    315.97708    600.86983    839.48103    32966.302 
    9500    308.25092   -1111.0799    333.89598    632.31271    592.40084    32966.302 
    9600    304.11499   -1092.9504    313.66883    611.30325    767.15725    32966.302 
    9700     296.7667   -1171.1146    337.14665    523.01632    465.80425    32966.302 
    9800    295.60483   -1152.1679    317.02563     516.5293     1086.991    32966.302 
    9900    302.97486    -1152.987    321.77527    554.15977     736.1923    32966.302 
   10000    305.60214   -1102.6165    339.69953    634.46795    966.35174    32966.302 
   10100    297.00236   -1144.3254    326.13711    539.87357    408.35246    32966.302 
   10200    297.41917   -1165.7932    335.97125     530.1458    382.78774    32966.302 
   10300    295.74143   -1163.4477    336.64437    525.49292    502.51429    32966.302 
   10400    293.70978   -1127.0415    315.67083     531.6357    804.01122    32966.302 
   10500    292.36852   -1139.3514    339.51446    537.03639     877.9825    32966.302 
   10600    302.63087   -1131.3834    338.19902    590.61417    818.07517    32966.302 
   10700    295.45027   -1117.2947    350.61467    584.28483    841.09758    32966.302 
   10800    299.29792   -1137.8625    333.81755    564.51351    1048.2452    32966.302 
   10900    298.82954   -1111.6052    344.34468    599.15632    325.50677    32966.302 
   11000    301.99703   -1115.7183    351.39353    616.57555    5.3805571    32966.302 
   11100    303.81356   -1161.2723    337.60509    565.53937    22.963547    32966.302 
   11200    292.76077    -1151.253    329.68821     517.1022    178.83902    32966.302 
   11300    303.60336   -1221.6241    327.02001    493.64125   -310.88516    32966.302 
   11400    304.45624   -1168.0091    343.71079    567.84696   -149.00033    32966.302 
   11500    296.31157   -1176.8247    326.29989    504.37833   -166.48449    32966.302 
   11600    283.90644   -1125.0766    378.21645    551.31984    557.84729    32966.302 
   11700    296.96563   -1152.6772    346.52964    551.74632    155.00886    32966.302 
   11800    294.66824   -1129.1986    354.81809    573.00846    510.32541    32966.302 
   11900    311.15793   -1078.4877    335.29454    679.59598    954.42212    32966.302 
   12000    301.39535   -1170.4383    348.09632    555.80715    425.60708    32966.302 
   12100    294.12387   -1142.1847    357.57829    560.29338    834.33622    32966.302 
   12200    305.44735   -1119.9903    326.51138    603.19817    1412.9713    32966.302 
   12300    298.74235   -1105.6589     368.4989    628.85808    1104.3886    32966.302 
   12400    293.75131   -1173.6651    362.19644    531.72754    740.67603    32966.302 
   12500     286.7214   -1162.1725    378.76193    527.64102    522.70621    32966.302 
   12600    299.15075   -1124.9634    356.37972    599.30188    901.24643    32966.302 
   12700    290.33632   -1125.1007    334.00209    536.48237    997.35636    32966.302 
   12800    305.40723   -1148.5411    367.55319    615.50582     281.0804    32966.302 
   12900    301.14964   -1168.5618    332.83497    541.29871    260.98767    32966.302 
   13000     307.5297    -1111.759    390.92107    685.36087    593.67121    32966.302 
   13100    298.53745   -1153.7918    331.79037     543.0797    265.11271    32966.302 
   13200    306.97139   -1131.6737    355.79586     627.7681    790.37051    32966.302 
   13300    297.53896   -1135.4452     366.4087      591.479    367.94161    32966.302 
   13400    298.97503   -1139.1992    354.81619    582.69901     21.05037    32966.302 
   13500    288.00746   -1128.4107    357.55989    546.08133    152.17937    32966.302 
   13600    306.67642   -1146.3107    361.51436    617.50085    191.29946    32966.302 
   13700    298.18028   -1113.2618    368.02387    618.21003    149.95795    32966.302 
   13800    302.41686   -1106.5445    373.53369    649.80916     148.7107    32966.302 
   13900    308.71009   -1120.3783    361.45921    652.67708    84.396773    32966.302 
   14000    293.90162   -1096.7474    374.98189    622.11809   -69.773587    32966.302 
   14100    304.49069   -1110.9545    386.65736    668.00561    618.49763    32966.302 
   14200    303.09542   -1102.1039     349.6887    633.50763    699.48139    32966.302 
   14300    303.66314   -1085.8064    359.66726    662.37959    426.66652    32966.302 
   14400    303.76657   -1128.3035    373.11698    633.80519    101.39674    32966.302 
   14500     305.8616   -1177.6964    357.85244    578.72734    676.58001    32966.302 
   14600    301.05252    -1132.057    367.93992    612.46441    26.688598    32966.302 
   14700    294.55784   -1199.7505     402.8682    550.00186   -475.28427    32966.302 
   14800    296.71072   -1156.1383     357.5712    558.16119    478.33409    32966.302 
   14900    309.19073   -1144.0588    363.50082    633.23605     320.5238    32966.302 
   15000    305.53098   -1121.9037     366.9573    642.11318    311.24311    32966.302 
   15100    306.82235   -1149.5525    376.93489    630.34681    532.50859    32966.302 
   15200    296.43949   -1149.4238     377.3497    583.41407    614.62224    32966.302 
   15300    292.46735   -1148.9569    400.11972    588.48812    615.00811    32966.302 
   15400    302.28709   -1113.0613    363.26187    632.42723    699.12367    32966.302 
   15500    299.55452   -1178.3709    385.38522     576.7461    152.52444    32966.302 
   15600    302.05237   -1208.4805    400.53393    573.20681    117.43485    32966.302 
   15700    297.36606   -1145.1627    391.01088    605.57311    318.38773    32966.302 
   15800    302.13317   -1146.2994    379.74133    614.96478   -240.75116    32966.302 
   15900    291.59546   -1219.5164     383.5452    497.36727   -455.89075    32966.302 
   16000    291.78415   -1137.8243    388.69449    585.07152    577.26116    32966.302 
   16100    303.25311   -1194.5443     369.3631    561.46266   -178.29215    32966.302 
   16200    313.08957   -1194.1528    384.46011      621.929    269.62097    32966.302 
   16300    295.32049   -1173.0087    388.70999    566.07277    550.51042    32966.302 
   16400    299.09992   -1174.2643     383.1693    576.55813    400.94333    32966.302 
   16500    299.81695   -1168.5143    380.61727    583.03476    675.50888    32966.302 
   16600    300.28441   -1172.7524    405.73555    606.05236    203.70886    32966.302 
   16700    296.69704   -1124.7735    379.30888    611.20123    349.34443    32966.302 
   16800    292.41974   -1186.6246    388.46919    538.95213    236.19784    32966.302 
   16900     305.6495   -1190.4425    399.03532    606.19424    206.21585    32966.302 
   17000    295.75805   -1188.4462    376.32402    540.25002    103.28179    32966.302 
   17100    304.98072   -1219.9277    389.06647    563.68221    110.32072    32966.302 
   17200    295.99249   -1185.6897    369.08129    536.83575     323.2649    32966.302 
   17300    304.72445   -1211.0499    375.74534    558.06712    605.39321    32966.302 
   17400    302.04447   -1213.7715    408.06149    575.40727    435.78876    32966.302 
   17500    293.02031   -1174.8009    399.29686    564.34969    742.80498    32966.302 
   17600    292.44945   -1176.8565    382.70262    543.08955    409.12865    32966.302 
   17700    296.45099   -1205.6668    428.99796    578.87186    1161.4541    32966.302 
   17800    295.04261   -1203.7168    382.17619    527.56021    198.72403    32966.302 
   17900    294.73341   -1179.1571    397.02734    565.55722    -174.6909    32966.302 
   18000    307.05034   -1210.4716    415.11947    608.65475    18.965889    32966.302 
   18100    288.35872   -1260.1933    371.65371    429.99876   -134.09671    32966.302 
   18200    295.96301   -1221.0006    386.55625    518.86505    497.21629    32966.302 
   18300    300.47976   -1215.2947    399.30403    557.97182    680.60205    32966.302 
   18400    305.24727   -1232.0694    400.56796    564.26081    667.91427    32966.302 
   18500    292.77756   -1237.6212    392.43155    493.55405    798.82384    32966.302 
   18600    295.95699    -1229.733    410.75897    534.30783    520.23899    32966.302 
   18700    299.52738    -1211.513    414.09148    572.18615    493.16921    32966.302 
   18800    300.66071   -1201.3311    387.42178    560.88058    588.40969    32966.302 
   18900    305.95684   -1189.3428    395.09635    604.76036    554.86115    32966.302 
   19000    300.24131   -1179.7797    393.65827    586.75074    582.75776    32966.302 
   19100    304.84975   -1204.8722    391.24217     580.3146    791.84331    32966.302 
   19200    298.33479   -1215.5554    424.08095       572.68   -3.8559119    32966.302 
   19300    292.77993   -1188.4823    412.19745     562.4697   -407.48825    32966.302 
   19400    297.26039   -1217.5107     407.0245    548.75559    342.26334    32966.302 
   19500    303.94179   -1181.1004     412.2839    620.97638    474.28906    32966.302 
   19600    312.36147   -1193.4229    418.69549      653.565    390.06502    32966.302 
   19700    301.53251   -1211.8784    412.22959     579.1275    447.51746    32966.302 
   19800     307.1759   -1241.6814    411.77538    574.67505    676.88864    32966.302 
   19900     305.2487   -1234.6187    392.03126     553.1814    348.19319    32966.302 
   20000    302.92824   -1211.4172    412.38971    586.13081   -101.64211    32966.302 
   20100    296.04371   -1181.7035    410.62218    582.59709    137.92421    32966.302 
   20200    311.84732   -1198.7224    429.14166    656.36068     298.8947    32966.302 
   20300    308.32393   -1191.5506    413.36693    631.64684    578.10526    32966.302 
   20400    301.90363   -1203.8799    399.60573    576.19912    288.28831    32966.302 
   20500    301.70536   -1185.8725    398.98888    592.68304    134.02617    32966.302 
   20600    293.30909   -1245.5652     423.6013    519.21031     569.4999    32966.302 
   20700    312.57077   -1230.9601    398.47383    596.76316   -310.74514    32966.302 
   20800    294.53546   -1207.3989    412.78475    552.16763     823.2044    32966.302 
   20900    304.35501    -1197.873    442.47987    636.28916    -367.6823    32966.302 
   21000    306.90862   -1183.8713    428.17857    647.66611   -431.94363    32966.302 
   21100    310.33652   -1204.3863     413.6741    628.32098    22.474331    32966.302 
   21200    294.11839   -1212.2346    399.71691    532.35705     413.3996    32966.302 
   21300     309.8453   -1196.4959    413.80443    634.09552    995.12555    32966.302 
   21400    298.13712   -1257.9364    422.76719    528.08142     543.3949    32966.302 
   21500    293.37874   -1222.8183    420.45542     539.1298    150.56733    32966.302 
   21600    305.35627   -1228.3718    425.71147    593.60036    353.90839    32966.302 
   21700    312.64291   -1213.3259    404.32667    620.58008    566.88143    32966.302 
   21800    291.84884   -1201.4645    408.77553    541.80813    345.74382    32966.302 
   21900    294.37904   -1211.8197    412.72061    546.96756   -695.11053    32966.302 
   22000     297.9438   -1231.1862    425.12039    556.30089   -404.96038    32966.302 
   22100     305.6573   -1196.8908    394.75686     595.5032    243.20442    32966.302 
   22200    302.63339   -1213.5951    388.71257    558.92759    244.26184    32966.302 
   22300    293.01796   -1227.7151    403.68107     515.8089   -178.84165    32966.302 
   22400    302.31635   -1247.8982    431.02631    565.48849    317.41661    32966.302 
   22500    295.69299   -1261.6041    406.57376    497.04441   -27.671163    32966.302 
   22600    299.73066   -1244.9993    421.01873    546.55669    362.92487    32966.302 
   22700    298.60702   -1288.4539     415.5045    492.44986    591.36658    32966.302 
   22800    307.77077   -1259.7419    414.44331    562.00252    283.10833    32966.302 
   22900    305.22103   -1255.0975    402.42169    542.96649    583.53728    32966.302 
   23000    311.48515   -1201.6699     431.4183     654.0337    920.43076    32966.302 
   23100    303.43846    -1239.081    406.47699    554.88733     986.7761    32966.302 
   23200    311.55797   -1269.8087    415.39665    570.20631    1232.2142    32966.302 
   23300    309.25608   -1239.1872    422.06815     596.9737    853.52776    32966.302 
   23400    304.60671   -1256.5028    419.29787     555.6283    320.63897    32966.302 
   23500    296.05932    -1262.736    384.82575    475.83957    365.48661    32966.302 
   23600    290.36092   -1200.7809    390.62622    517.53884    1140.8204    32966.302 
   23700    288.79072   -1219.1498    429.13143    530.49529     362.9152    32966.302 
   23800    299.07287   -1188.3275    438.91048    618.11241    15.838548    32966.302 
   23900    302.38235   -1229.9765    415.14947    567.83515     -169.243    32966.302 
   24000    289.83226   -1258.9747    391.70677    458.00826    202.04711    32966.302 
   24100    310.15316    -1203.747    419.06038    633.50808    247.84615    32966.302 
   24200    297.61173   -1210.2624    406.77467    557.36052    136.73652    32966.302 
   24300    293.93141   -1228.6235    426.92617    542.32239    236.63976    32966.302 
   24400      297.513   -1227.1122    428.52983    561.81441    757.44054    32966.302 
   24500    298.96835   -1214.3318    438.13957    590.85924    139.84771    32966.302 
   24600    306.37873   -1199.8986     424.5821    625.61942     115.5782    32966.302 
   24700    305.14385    -1211.326    429.14881    613.11217   -410.28648    32966.302 
   24800     295.2968   -1233.7348    440.89258    557.42085   -324.50241    32966.302 
   24900    298.00078   -1230.1843    423.10936    555.55226    390.25609    32966.302 
   25000    298.47857   -1238.8812    415.15614    541.08686      332.289    32966.302 
   25100    287.67302   -1253.4453    428.55452    490.51216   -165.87933    32966.302 
   25200    293.46935   -1223.1501    418.61589    537.37271   -611.96473    32966.302 
   25300    300.53306   -1239.8487    415.05312    549.41065   -173.29313    32966.302 
   25400     296.3103    -1214.948    420.88701    560.83643   -134.35647    32966.302 
   25500    307.75069   -1217.6328    441.98882    631.56526   -119.29451    32966.302 
   25600    300.79475   -1212.8299    440.90461    603.47748    41.413758    32966.302 
   25700    290.18679   -1250.1477    433.35084    510.10045   -463.15477    32966.302 
   25800    293.92488   -1228.8016    415.27913    530.46744    322.01523    32966.302 
   25900     288.9116   -1250.5828    427.97743    498.46098    784.77886    32966.302 
   26000     304.9021   -1253.0216    432.73235    573.89469    833.76587    32966.302 
   26100    303.12584   -1261.1385    435.84768    560.77105    266.71911    32966.302 
   26200    298.26494   -1298.7397    400.60571    465.70112   -28.603358    32966.302 
   26300    304.61212   -1218.5807    429.42936    603.70662   -225.19463    32966.302 
   26400     291.5875   -1285.3597    426.52228    474.46471   -328.07499    32966.302 
   26500    300.62349   -1245.2549    426.50442    555.86922    133.41791    32966.302 
   26600    300.67861   -1226.8083    446.21139    594.27484    746.72557    32966.302 
   26700    300.65877   -1242.8097    433.50596    565.47726    355.96805    32966.302 
   26800    302.97166   -1218.6575     434.7204    601.41983    588.88132    32966.302 
   26900    295.79698    -1219.217    439.37995    572.71319    407.29418    32966.302 
   27000    302.97583   -1225.7845    437.63539    597.22683    211.84053    32966.302 
   27100    302.62785   -1246.4437    417.78775    555.12887    413.02393    32966.302 
   27200    299.57279   -1261.9808    435.42191    543.25645    306.65978    32966.302 
   27300    292.78595   -1212.0747    437.20584    563.91328    602.95047    32966.302 
   27400    296.30177   -1232.7784    442.61177    564.69179    241.09422    32966.302 
   27500    307.01223   -1221.9464    466.09784    647.98404    918.73154    32966.302 
   27600    301.04671   -1223.5208    421.66893    574.70304    70.971562    32966.302 
   27700    308.02131   -1227.7372    435.78996    616.49946    461.22092    32966.302 
   27800    311.35815    -1190.391       441.71    675.02363    288.86628    32966.302 
   27900    298.50157   -1189.0765      430.507    606.34761    332.63646    32966.302 
   28000    298.86869   -1192.7783     468.5287    642.34621   -62.949462    32966.302 
   28100    300.36501   -1215.9461    452.40838    609.90012    479.02264    32966.302 
   28200      298.894   -1261.3607    421.10209    526.45287    397.02393    32966.302 
   28300    305.91948   -1211.9657    450.44374    637.31398     427.1538    32966.302 
   28400     289.2823   -1257.6177    458.42473    523.56848    137.63041    32966.302 
   28500    303.01218   -1198.3295    441.06167    628.27435    365.21935    32966.302 
   28600    285.71696   -1200.8339    459.87021    565.49497    387.34758    32966.302 
   28700    298.54833   -1216.7638    434.55559    582.92277    491.39518    32966.302 
   28800    298.26848   -1254.9543    425.25752    534.15447    228.39427    32966.302 
   28900    289.02091   -1252.3459    443.65028    512.87057    92.202152    32966.302 
   29000    298.66783   -1247.3426    435.25762    553.59237    239.16996    32966.302 
   29100    300.23101   -1277.0092    450.72209    546.53796     558.9946    32966.302 
   29200    296.08862   -1272.8199    442.15091    523.21472    1040.4833    32966.302 
   29300    308.24447   -1310.1135    455.62688    554.98053   -87.112158    32966.302 
   29400    298.57924   -1306.7074    457.41836    515.98322   -467.70776    32966.302 
   29500    309.07494   -1308.8899    443.53574    547.91034   -288.25439    32966.302 
   29600    296.48072   -1304.8017    453.41104    504.28601   -36.532752    32966.302 
   29700    300.64239    -1265.481    448.09994    557.32505   -285.22473    32966.302 
   29800    292.79719   -1249.2538    455.77594    545.35565   -835.61009    32966.302 
   29900    304.39927   -1264.0745    420.90237    548.71255   -77.175823    32966.302 
   30000    290.99672   -1301.1072     453.7488    483.24234    250.83605    32966.302 
   30100    301.40689   -1268.7471    443.86845    553.32319    226.47375    32966.302 
   30200    311.79236    -1284.338     453.4685    594.82061    352.88372    32966.302 
   30300    292.04075   -1337.5492     459.3205     457.1459   -588.06668    32966.302 
   30400    308.59786   -1271.8664    447.84425    587.06086    628.28304    32966.302 
   30500    299.73857   -1268.7118    428.60479    530.46636    228.68717    32966.302 
   30600    293.60212   -1303.7174    449.67547    488.47211    -379.2271    32966.302 
   30700    301.72326   -1280.0572    465.74553    565.33686    300.43709    32966.302 
   30800    298.62904   -1301.6992     440.2734    504.07419   -190.65822    32966.302 
   30900    304.02931   -1261.7433    443.07132    571.52104    25.565528    32966.302 
   31000    299.61168   -1221.6814     450.6293    598.94102    49.325362    32966.302 
   31100    301.35223   -1242.9177    456.62736     591.6616   -1.0897949    32966.302 
   31200    310.37589   -1222.4177    455.89387    652.68938   -351.54308    32966.302 
   31300    303.28351   -1252.9558    449.38621    583.21323   -425.88775    32966.302 
   31400     301.7132   -1253.1135    448.90638    575.39542   -513.03097    32966.302 
   31500    292.48898   -1262.2533    456.81713    531.98799   -473.57096    32966.302 
   31600    302.33471   -1214.0044    466.82115     635.2611   -17.278676    32966.302 
   31700    307.80328   -1229.1509    452.76135    631.06024   -188.11344    32966.302 
   31800     303.8852   -1246.3777    457.37025    600.52663  0.082387224    32966.302 
   31900    299.57632   -1193.4901      469.785    646.12636   -67.991178    32966.302 
   32000    300.23362   -1202.6033    471.90215    642.13589   -267.29584    32966.302 
   32100    299.75519   -1250.3435    460.93442    581.24029    410.05846    32966.302 
   32200     295.4752   -1267.7884    468.08071    551.37118    597.60011    32966.302 
   32300     299.2039   -1224.6456    467.62696    611.10992    996.42823    32966.302 
   32400    307.33585   -1260.7784    443.46903    588.00308    529.39316    32966.302 
   32500    300.37934    -1228.555    465.60573    610.55409    473.66219    32966.302 
   32600    304.58743   -1248.3294    460.68153    605.09726     1053.844    32966.302 
   32700    299.37593   -1281.5577    455.25308    542.61056    805.52234    32966.302 
   32800    295.79082   -1247.6473    453.67589    558.55061    824.77752    32966.302 
   32900    290.94022   -1267.8907    472.11026    534.56193    46.496468    32966.302 
   33000    292.88918   -1288.4171    474.73107    525.56805   -279.25298    32966.302 
   33100    303.87747   -1250.9136    443.17922    581.76431   -372.40318    32966.302 
   33200     297.7742   -1219.3875    471.56031    613.76394   -339.34421    32966.302 
   33300    294.35269   -1296.5853    453.03567    502.39644   -466.43424    32966.302 
   33400    307.99292   -1284.6664    447.37114    571.02166   -310.51742    32966.302 
   33500     295.6021    -1275.296    464.80279    541.16586    -651.1206    32966.302 
   33600     291.5824   -1279.3885    474.42959    528.31984    158.58596    32966.302 
   33700    307.29598   -1269.9538    471.86199    607.03829    548.21506    32966.302 
   33800    307.24731   -1263.7825     455.2625    596.38757    58.797342    32966.302 
   33900    306.94251   -1265.5984    472.15003    610.06549   -376.38397    32966.302 
   34000    303.03191   -1271.5798    460.91019    574.96277    562.51014    32966.302 
   34100    299.45768   -1283.5823    490.10159    575.80824    986.66451    32966.302 
   34200    294.66371    -1302.203    453.55671    498.72195    251.15573    32966.302 
   34300     291.2322   -1282.3474      479.805    529.13511   -3.3815435    32966.302 
   34400    297.81681   -1302.9188    421.24817    480.11535    153.99816    32966.302 
   34500    294.89845   -1311.6302    458.83707    495.64847    378.55842    32966.302 
   34600    292.39731   -1301.4615    490.40799    525.95151    202.83005    32966.302 
   34700    293.66636   -1261.8573    458.40619    539.35669    54.815761    32966.302 
   34800    306.61859   -1280.7078    470.78542    592.11033    376.34409    32966.302 
   34900    312.70712   -1363.5513    458.21299     524.5346     68.31147    32966.302 
   35000    290.66039    -1310.155    480.58737    499.49517    306.98725    32966.302 
   35100    303.36307   -1295.4538     457.2831    548.97598    489.07795    32966.302 
   35200    305.86951   -1296.9785     462.0785    563.70748   -707.67269    32966.302 
   35300     308.6281   -1259.9189     473.4021    624.70453    -392.0373    32966.302 
   35400    300.11313   -1258.5975    455.33934    569.02794    -67.61686    32966.302 
   35500    301.59184   -1272.0347    491.10979    598.12264    170.88152    32966.302 
   35600    303.84987   -1257.8269    494.60387    626.14956    438.10798    32966.302 
   35700    289.55395   -1314.8259    492.19387    501.37157   -156.92991    32966.302 
   35800    304.10741   -1278.1354    481.26643    593.68126    1009.2815    32966.302 
   35900    312.82339   -1318.0812    466.25063     578.5739    143.33007    32966.302 
   36000    311.77145   -1306.8797    465.13854    583.85333    511.44715    32966.302 
   36100    299.22827    -1288.512     475.1443    554.87231    792.84978    32966.302 
   36200    293.09331    -1304.889    483.09339    518.39193     346.4899    32966.302 
   36300     310.1992   -1277.7831     484.2294    624.85157   -18.840429    32966.302 
   36400    302.10954   -1274.5377    473.75434    580.63146   -375.92273    32966.302 
   36500    299.33126   -1368.9456     482.6917    482.45707   -630.22102    32966.302 
   36600    299.51509   -1306.8872    468.24776    530.91203   -874.11253    32966.302 
   36700    304.36065    -1297.381    478.03175     572.3589    399.24326    32966.302 
   36800    285.47748    -1276.589    487.95331    516.72791   -39.482106    32966.302 
   36900    301.42239   -1280.3748    486.16942    584.06734    609.37161    32966.302 
   37000    300.96886   -1285.4486    491.57514    582.32549    220.03266    32966.302 
   37100    301.24638   -1305.5682    479.45911    551.35886    819.82072    32966.302 
   37200     291.0211   -1306.0725    485.13784    509.77759    370.12793    32966.302 
   37300    307.79475    -1313.326    473.22208    567.30683    780.51592    32966.302 
   37400      304.967   -1323.3822    477.66761    548.76615   -194.87856    32966.302 
   37500    318.36635   -1336.7882     462.0098     580.9717   -346.92677    32966.302 
   37600    303.97651   -1305.0331    463.72988    548.64842    916.74756    32966.302 
   37700    296.04878   -1354.7073    499.38338    498.37767    670.23029    32966.302 
   37800    296.98138   -1373.3593    469.61754    454.22425    343.15803    32966.302 
   37900    307.53703   -1331.8067    474.08912    548.51477    381.80199    32966.302 
   38000    296.68593   -1336.2466    490.92605    511.29442    275.90555    32966.302 
   38100    302.74809   -1319.6429    458.25861    522.95027    268.71813    32966.302 
   38200    295.39533   -1351.6615    473.79313    472.84524    324.57588    32966.302 
   38300    298.19939   -1337.4357    483.46534    509.56509    125.66609    32966.302 
   38400    295.24586   -1366.7887    486.90991    470.15137   -294.74251    32966.302 
   38500     295.4873   -1305.8829    470.79099    516.04226    290.33397    32966.302 
   38600    299.09466   -1317.1778    466.77183    517.22308    45.242401    32966.302 
   38700    292.72408   -1285.0626     473.6695    527.10604   -118.19959    32966.302 
   38800     293.3227   -1319.4868    478.06547    499.81511   -816.11461    32966.302 
   38900      298.025   -1331.0562    490.73672    522.41849   -401.43079    32966.302 
   39000    295.40338   -1318.5897    481.75294    513.91369    254.56615    32966.302 
   39100    289.76474   -1298.2567    480.84518    507.55586   -160.77848    32966.302 
   39200    301.68146   -1308.7281    503.15915    573.88844   -57.692635    32966.302 
   39300    297.98476   -1276.6328    462.67801    548.59915   -414.65459    32966.302 
   39400    302.92229   -1228.0626    488.58025     645.6488   -17.230445    32966.302 
   39500    295.85588   -1293.6882    510.87334    570.00468    234.00562    32966.302 
   39600    308.57294   -1311.6872    510.11874    609.40067    83.596762    32966.302 
   39700    299.70515   -1301.9593    515.16525    583.62653   -340.79247    32966.302 
   39800    300.39591   -1330.0681    485.58399    529.09501    221.84495    32966.302 
   39900    300.56614   -1291.7068    454.89245    537.54317    143.06925    32966.302 
   40000    296.86776    -1364.816    459.30607    451.93651   -86.018926    32966.302 
   40100    299.99378   -1317.3793    466.79075     521.1518   -463.81152    32966.302 
   40200    304.80394   -1337.6268    478.95843    535.06675   -232.90297    32966.302 
   40300    300.13911   -1327.1328     479.4574    524.72951   -20.515217    32966.302 
   40400    297.41902   -1288.1877    460.48964    532.26905    219.20638    32966.302 
   40500    296.73333   -1301.4286    487.18819    542.59135    678.04874    32966.302 
   40600    306.82196   -1298.2419    473.58844    578.30913    26.424001    32966.302 
   40700    298.09877   -1354.3217    476.78693    485.54049    204.02032    32966.302 
   40800    292.16084   -1322.2455    481.82358    495.50177    155.00072    32966.302 
   40900    289.20391   -1332.8489    463.39099    452.94513   -66.540104    32966.302 
   41000     289.6933    -1295.966    503.61921    532.29398    -97.60854    32966.302 
   41100    295.73884   -1292.8854    476.66752    536.06651   -125.00422    32966.302 
   41200     313.6888   -1290.4466    480.98188    624.89697    343.88167    32966.302 
   41300    302.03674   -1303.9743     486.7712    563.87884    82.910093    32966.302 
   41400    307.41054   -1326.6077    513.35968    592.40593    345.95542    32966.302 
   41500    297.84086   -1313.7023    514.51709    562.71072   -340.96831    32966.302 
   41600    301.82812   -1278.4105    502.23131    603.94886   -426.11009    32966.302 
   41700    298.88419   -1310.2486    500.77992      557.198    630.27686    32966.302 
   41800    291.17297   -1317.0124    491.97309    506.36731    74.585652    32966.302 
   41900    296.65751   -1302.8689    500.40227    554.01844    803.75762    32966.302 
   42000    307.20171   -1265.0079    496.17038    635.86152    195.36613    32966.302 
   42100     298.8254   -1288.9262     501.2049     578.6765   -406.81856    32966.302 
   42200    303.80323   -1325.1631    485.45891    549.45511   -219.29656    32966.302 
   42300     299.2363   -1266.6051     507.2018    608.87343    -506.9516    32966.302 
   42400    294.83507   -1304.4526    484.37639    528.07559    18.856864    32966.302 
   42500    303.45412   -1294.6281    492.15279    585.08771      227.633    32966.302 
   42600    296.03217   -1277.6805    508.36869    584.31385    1048.7031    32966.302 
   42700    296.44112   -1335.0565    505.22112     525.6602    265.42683    32966.302 
   42800    317.46672   -1322.5608     516.0123    645.08794    551.79204    32966.302 
   42900    300.61904   -1362.6026     483.9194     495.9162    381.73755    32966.302 
   43000    302.61702   -1316.5945    511.35878    578.49951    775.83246    32966.302 
   43100    297.16252   -1312.9381    503.26637    549.12251   -82.049294    32966.302 
   43200    305.93167   -1333.9438     511.1606    576.10854   -19.489758    32966.302 
   43300    292.71795   -1291.5038    490.83088    537.79819   -780.66778    32966.302 
   43400    300.57044   -1359.4716    481.34662    496.25222   -504.14128    32966.302 
   43500    293.39411   -1337.5811    483.79945    487.78127   -429.35252    32966.302 
   43600    293.07251   -1306.0907    483.94023    517.94196    158.23485    32966.302 
   43700    287.94342   -1347.8457     475.6426    444.43622   -419.92437    32966.302 
   43800    296.73983    -1303.745    502.47549    555.59199   -628.64336    32966.302 
   43900    293.08042   -1284.1686    480.81399      536.774    180.72715    32966.302 
   44000    294.04469    -1306.569    496.49485    534.46362    38.146619    32966.302 
   44100    307.45606   -1318.1272    496.67317    584.40805   -425.71296    32966.302 
   44200    314.27353   -1352.9293    462.33594    546.44201    549.03844    32966.302 
   44300     294.9754   -1376.8854    486.07491    457.98299    172.52231    32966.302 
   44400    304.43803     -1332.65    508.79931    568.21123   -222.97202    32966.302 
   44500     296.4502   -1291.9328    518.92428    582.52862    329.52901    32966.302 
   44600    303.56269   -1303.3966    478.16916      562.832   -362.48344    32966.302 
   44700    296.92064   -1334.8121    506.48816    529.36427   -730.98627    32966.302 
   44800    302.44853   -1325.1226    482.68961    540.53189   -1158.5915    32966.302 
   44900    294.54077   -1323.4591    473.01637    496.36338   -206.32897    32966.302 
   45000    290.16652   -1356.0275    489.14984    459.92694    -403.9492    32966.302 
   45100    300.17729   -1358.6892     502.3986    516.28889    76.144381    32966.302 
   45200    301.48819   -1318.4228    482.91806    543.06886    14.902019    32966.302 
   45300    302.33313   -1347.4387    490.78975    525.78824     501.9967    32966.302 
   45400    304.47759   -1342.6134    485.11406    534.74349   -440.03064    32966.302 
   45500    297.34894   -1286.7024    509.51509    582.45932    20.846649    32966.302 
   45600    287.63544   -1277.8269    513.21872    550.62289    86.924122    32966.302 
   45700    291.38265   -1286.3692    514.55468    560.55086    539.16358    32966.302 
   45800    307.07634    -1321.419    478.46974    561.17655    724.64114    32966.302 
   45900    302.38281    -1273.685    483.17816    592.15749    384.14667    32966.302 
   46000    305.42745   -1261.4305     478.7012    613.85686   -426.15234    32966.302 
   46100    297.29685   -1243.9852    507.42008    622.84337   -112.89283    32966.302 
   46200    302.62653   -1271.4987    495.84594      608.126   -3.1310652    32966.302 
   46300    296.58605   -1322.9415    490.39495    523.61176    697.43663    32966.302 
   46400     306.1306   -1266.1524    517.72715    651.37607    228.11935    32966.302 
   46500    300.56288   -1257.7741    516.93984    633.50833    387.21606    32966.302 
   46600    295.12606   -1287.9277    491.02086    552.57556   -48.913683    32966.302 
   46700    299.46933   -1269.6913    500.23024    599.88121    241.62787    32966.302 
   46800    303.46594   -1267.9019    489.42128    609.13642    31.331115    32966.302 
   46900    291.69855   -1308.3004    497.25585    522.76529    185.17139    32966.302 
   47000    318.49799    -1287.518    516.90121    685.73525    306.16853    32966.302 
   47100    304.67066   -1339.2819    495.08274     548.9265    -41.99005    32966.302 
   47200     301.0377   -1313.6937    478.81269     541.6327   -80.374516    32966.302 
   47300    298.53374   -1304.7199    504.23867    564.58302   -202.22659    32966.302 
   47400      294.755   -1298.2688    499.07811    548.59498   -731.79491    32966.302 
   47500    312.01104   -1314.2227    495.88316    608.35049    112.98763    32966.302 
   47600     300.6814   -1357.9027    495.49164    512.47345   -275.77904    32966.302 
   47700    309.75269   -1385.7241    488.56735    519.20684   -74.276951    32966.302 
   47800    297.09912   -1332.7053    474.92704    500.72605   -45.665314    32966.302 
   47900      295.364   -1371.8449    485.10567    463.83118   -873.06663    32966.302 
   48000    298.29719   -1365.8689    490.66282    488.77657   -134.03229    32966.302 
   48100    304.63991   -1343.8438    486.50629    535.64753    307.89733    32966.302 
   48200    309.78983    -1287.627    495.18272    624.08913   -399.25859    32966.302 
   48300    298.94208   -1322.3399    508.30261    552.89405   -298.16669    32966.302 
   48400    300.39211   -1307.7326    511.37194    577.20105    -43.84068    32966.302 
   48500    288.25305    -1325.687    500.08205    492.45014   -416.50577    32966.302 
   48600     302.5378   -1327.9809    484.76613     540.1583    301.95425    32966.302 
   48700    308.15825   -1384.0318    506.91409    531.95518    214.31194    32966.302 
   48800    303.84607   -1366.8961    499.29301    521.75209    802.19772    32966.302 
   48900    286.18978   -1322.1391    488.01535    474.49698    338.89057    32966.302 
   49000    292.57436   -1326.2964    499.54343    511.06156   -528.21167    32966.302 
   49100    291.40304   -1331.3476    484.80518    485.91624    28.495016    32966.302 
   49200    288.96909   -1298.0606    497.28485    520.55347   -621.91591    32966.302 
   49300     289.2618   -1331.5605    500.49287    491.60005   -15.018704    32966.302 
   49400    292.46245   -1301.9569    503.71097    539.05691   -12.549215    32966.302 
   49500    293.94036   -1271.0187    514.61272    587.65474    621.15959    32966.302 
   49600    298.39767   -1328.9302    503.59712    539.10894    389.87877    32966.302 
   49700    306.92457   -1333.4951    497.10631    567.04305   -61.398822    32966.302 
   49800    301.46948   -1343.5347    497.28335    532.23671    -172.1244    32966.302 
   49900    299.20803   -1348.9507    493.00285     512.1996    115.66261    32966.302 
   50000    293.96602   -1296.1892    495.66814    543.65702   -217.89356    32966.302 
   50100     297.5097   -1299.7725    467.09226    527.70146    186.30574    32966.302 
   50200    298.30741   -1312.6342    499.98876    551.38387    139.96646    32966.302 
   50300    296.89474    -1336.192    499.30099    520.67883    242.95906    32966.302 
   50400    305.58067   -1343.5081    521.26693    575.04555    446.77536    32966.302 
   50500    297.97228    -1293.737    505.35352    574.11342   -67.609062    32966.302 
   50600    295.32243   -1287.1342    494.93215    558.17825   -512.63314    32966.302 
   50700    293.46813   -1340.2858     498.0099    499.62554   -232.96703    32966.302 
   50800    293.45278   -1293.6569    493.95698    542.13132   -474.27339    32966.302 
   50900    295.84358    -1337.541     516.4977    531.72006   -367.05144    32966.302 
   51000    293.62706   -1321.4415    499.31983    520.50642   -644.23201    32966.302 
   51100    290.28117   -1349.3826    493.45179    471.39803    577.77792    32966.302 
   51200    286.43527   -1348.2521    536.88681    498.37791   -15.775945    32966.302 
   51300    302.81566   -1354.8232    510.73845    540.55883     248.0474    32966.302 
   51400    292.94742   -1298.4618     504.1045    545.16315       772.62    32966.302 
   51500    295.46408   -1347.3207    489.52706    493.23437   -272.81136    32966.302 
   51600    304.59977   -1319.1937    506.54814    580.15596   -513.04843    32966.302 
   51700    305.15542   -1308.0252    512.94709    600.26414    -72.92204    32966.302 
   51800    294.50907   -1360.3247    503.13259    489.46906   -23.042805    32966.302 
   51900    292.50364   -1358.8646    511.10488    489.73144    147.43786    32966.302 
   52000    299.89728   -1397.4379    483.49539    457.35659    657.27111    32966.302 
   52100    299.44219   -1358.5775    489.54771    500.18838    112.31336    32966.302 
   52200    294.21276     -1319.24    508.34929    534.41559    118.50061    32966.302 
   52300    299.70786   -1346.3075    506.88863    531.01405    2.1185052    32966.302 
   52400    304.19847   -1301.0613    518.47198     608.3772    489.05969    32966.302 
   52500    301.27592   -1302.0734    505.29161    580.82125    554.11731    32966.302 
   52600    308.09196   -1322.7237    525.14852    611.19457   -260.82209    32966.302 
   52700    301.56366   -1291.2319    550.78461    638.47139    492.70288    32966.302 
   52800    303.16824    -1258.742    500.43192    627.94574    725.98043    32966.302 
   52900    292.48531    -1337.513    497.00946    496.90381     331.3268    32966.302 
   53000    294.96499   -1289.9993    523.51045    582.25703    206.91228    32966.302 
   53100    292.42129   -1245.7282    518.75287    610.13928    453.70963    32966.302 
   53200    309.13309   -1303.4113    522.42679     632.5459    147.15435    32966.302 
   53300    304.46721   -1349.2377    494.96074    537.91841   -61.371646    32966.302 
   53400     306.1476   -1365.1462    479.50373    514.23666   -88.105922    32966.302 
   53500     306.2128   -1373.8395    480.89231    507.22997   -43.157286    32966.302 
   53600    314.98345   -1381.3979    487.49308    546.37675   -417.46309    32966.302 
   53700    307.66582   -1357.8694    495.81084    544.76267    429.08665    32966.302 
   53800    299.86349   -1386.3108    489.14993    473.98368    648.16023    32966.302 
   53900    295.29536   -1417.8483    516.06205    448.47022   -53.657986    32966.302 
   54000    307.60358    -1339.201    499.23295     566.5686   -150.86991    32966.302 
   54100    298.29053   -1350.7189    492.77008    506.00333    203.79462    32966.302 
   54200    299.33491   -1362.7279     481.9433    487.94302     97.93521    32966.302 
   54300    348.26326   -1367.1501    490.03759    715.34305    254.89105    32966.302 
   54400    302.63334   -1391.8742     483.4581    475.39382    152.65128    32966.302 
   54500    300.38643     -1368.82    489.63528    494.35101    85.364225    32966.302 
   54600    309.68211   -1347.0243    520.07617    589.09271   -138.17801    32966.302 
   54700    300.05843   -1374.2846    488.39258    486.14395    532.71443    32966.302 
   54800    296.01716   -1365.8522     481.3827    469.08747    532.66797    32966.302 
   54900    304.47415   -1377.5618    518.49201    533.15728    186.68366    32966.302 
   55000    294.40292   -1378.1928    515.07352     483.0565    28.535184    32966.302 
   55100    307.57145   -1349.7096    511.84092      568.521   -160.64659    32966.302 
   55200    301.63149   -1369.4151    511.60338    521.41711   -63.265742    32966.302 
   55300    292.70995   -1349.0358     493.6875    483.08621    668.81878    32966.302 
   55400     297.9705   -1328.8562    507.99068    541.62329    587.36494    32966.302 
   55500     300.1088   -1328.6954    515.87118    559.44207    156.28233    32966.302 
   55600    306.14234   -1310.8656     511.5407    600.53012   -255.22564    32966.302 
   55700    295.08476   -1279.8513    517.37526    586.81753    782.21151    32966.302 
   55800    300.62169   -1316.6447    512.57027    570.53707    137.49717    32966.302 
   55900    292.22953   -1311.6313     523.0061     547.6126   -281.75723    32966.302 
   56000    290.37571   -1341.4652     508.6528    494.94873   -823.83272    32966.302 
   56100    308.31503   -1333.9029    522.04543    597.93232   -745.02425    32966.302 
   56200    297.64159   -1384.5609    500.41403    476.83797   -79.659759    32966.302 
   56300    303.67487   -1340.2334    503.86513    552.20413    671.60132    32966.302 
   56400    287.55645   -1357.9816    501.86197    458.75024     633.0432    32966.302 
   56500    299.56227   -1367.1366    534.35827    536.98895    389.47349    32966.302 
   56600    293.96015   -1387.1045    489.97625    447.02295   -159.11451    32966.302 
   56700     298.4779    -1407.878    500.65579    457.58668    147.85786    32966.302 
   56800    296.55509   -1346.2166    520.00175    529.80181   -371.77162    32966.302 
   56900    293.17041   -1328.4742    507.67034    519.73624   -91.544865    32966.302 
   57000    305.63436   -1333.3293    478.60977    542.81271    303.96536    32966.302 
   57100     307.4628   -1335.2881    506.75445    577.35927    419.07839    32966.302 
   57200    302.48335   -1346.4416     517.0153    553.69771  -0.93229343    32966.302 
   57300    292.31091   -1332.5394    493.05861    497.12911   -332.60872    32966.302 
   57400    309.69479   -1334.4954    500.09326    581.69665    654.93704    32966.302 
   57500    299.45792   -1361.8166    496.18973    503.66318    423.09722    32966.302 
   57600    287.69639   -1330.3735    500.22314    485.35938    599.49658    32966.302 
   57700    305.39486   -1352.1902     539.6194    583.86634    125.82366    32966.302 
   57800    308.82551   -1367.0271    515.88555    560.98247   -214.56876    32966.302 
   57900    298.62773   -1322.7707    520.51897    563.24228    481.51751    32966.302 
   58000     300.3065   -1285.0751    481.42739    569.52259    167.20256    32966.302 
   58100    294.84535   -1323.1263    498.15068    523.22318    298.75123    32966.302 
   58200    296.91954    -1351.307    505.86288    512.23904   -614.86324    32966.302 
   58300    293.74674    -1351.444    510.29722    502.02856    -590.0334    32966.302 
   58400    305.60349   -1296.7317    496.00793    596.66729   -523.12886    32966.302 
   58500    304.94322    -1312.654    499.71368    581.43167   -318.46757    32966.302 
   58600    292.59824   -1293.1548    506.86603    551.63502    17.772684    32966.302 
   58700    304.13524   -1336.0044    522.74475     577.4178   -172.61596    32966.302 
   58800    296.54784   -1327.0246     524.5791    553.53809   -318.66811    32966.302 
   58900    296.17233   -1317.9743    510.20206    546.49426   -408.04482    32966.302 
   59000    314.33061   -1293.9106    482.27728    625.66303   -73.884954    32966.302 
   59100    304.88912   -1310.3865    494.81239    578.55042   -628.63819    32966.302 
   59200     293.7805   -1341.8371    512.21584    513.70846   -409.46468    32966.302 
   59300    302.84073   -1364.1822    471.23519    491.81123   -3.8491896    32966.302 
   59400    304.77076   -1314.4322    508.69206    587.84325   -416.44744    32966.302 
   59500    305.97142   -1373.9901    514.53597    539.61931   -433.58258    32966.302 
   59600    302.64549   -1363.4359    504.32074    524.75033   -288.48213    32966.302 
   59700    308.60688   -1330.6951    498.73507    579.16428    120.32964    32966.302 
   59800    309.67396   -1347.5747    504.56618    572.99502    208.78175    32966.302 
   59900    301.20626    -1335.509    515.13057    556.90605    602.86348    32966.302 
   60000    295.98283   -1347.1671    505.83586    512.06875    368.84901    32966.302 
   60100    298.35343   -1365.0687    513.19372    512.36474    89.652852    32966.302 
   60200    303.64475    -1307.633    526.49108    607.29267    318.49256    32966.302 
   60300    294.10521    -1305.022     501.9277    541.72017    565.51869    32966.302 
   60400    303.38742   -1393.8502    509.85621      503.264   -8.2795493    32966.302 
   60500      299.925   -1389.6764    505.55421     487.3036   -261.05706    32966.302 
   60600    304.39856   -1434.3946    513.07233    470.55919    239.23432    32966.302 
   60700    301.46864   -1357.5916    505.16973    526.06237    724.49086    32966.302 
   60800     306.2848   -1346.4978    523.07712    577.08579    246.72079    32966.302 
   60900    291.82823   -1334.1805    513.70618    513.92852    138.24468    32966.302 
   61000    308.21308   -1305.0074    497.36358    601.67978    76.461138    32966.302 
   61100    301.80974   -1351.0651    528.62717    557.60605    -507.8252    32966.302 
   61200     288.7334   -1357.4963    498.99664    461.75192   -849.39329    32966.302 
   61300    294.74984   -1334.2673    498.98189    512.47669   -681.90241    32966.302 
   61400    299.80686    -1376.712    511.21343    505.38701   -690.58358    32966.302 
   61500    301.84661   -1405.6446    517.64505      492.213   -692.38771    32966.302 
   61600    295.79818   -1379.9769     493.4249    466.00375    293.52436    32966.302 
   61700    282.84032   -1413.8136    495.16754    374.65905   -387.33594    32966.302 
   61800     293.7242   -1415.7836    494.66234    421.95103   -489.27469    32966.302 
   61900    298.10916   -1373.2205      514.193    504.09532    209.60493    32966.302 
   62000    295.52929   -1397.8564    504.46662    457.93635    4.1700853    32966.302 
   62100    296.86095   -1403.6098    517.68131    471.48673    -613.4405    32966.302 
   62200    305.31572   -1386.5687    505.78983     515.2964   -98.595949    32966.302 
   62300    294.37248    -1377.156    496.20498    465.08553    86.324162    32966.302 
   62400    312.78583   -1373.3506    498.06153    554.94376   -368.46861    32966.302 
   62500    300.95337    -1340.739    519.54439    554.93356   -170.76566    32966.302 
   62600    296.87736   -1363.5114    511.49639     505.4753    410.19707    32966.302 
   62700    297.79808   -1415.4604    525.41621    471.65621    705.10846    32966.302 
   62800    298.58884   -1436.9784    516.08861    444.42642   -17.691302    32966.302 
   62900    311.57155   -1396.6345    508.93547    536.98141    517.02871    32966.302 
   63000    289.28948   -1397.0913    518.11459    443.81754    861.52109    32966.302 
   63100    306.80256   -1432.5106    512.08541    482.44869    154.53942    32966.302 
   63200    306.33255   -1379.7224    486.57535    507.57767    937.65421    32966.302 
   63300    292.78732   -1427.9947    517.27256    428.06615   -234.58403    32966.302 
   63400    307.26406    -1375.114     521.9467    551.81686    89.025945    32966.302 
   63500    294.19225   -1377.7937    502.41178    469.83052    945.50016    32966.302 
   63600    300.02811   -1371.9713    515.02146    514.94749    321.16533    32966.302 
   63700    287.52608   -1362.1417    540.14845    492.73774    39.328887    32966.302 
   63800    297.03776   -1417.5423    511.08125     451.7627   -295.99382    32966.302 
   63900    309.32962   -1374.3035    515.86435    555.98991    670.76599    32966.302 
   64000    294.90882   -1362.0581    490.60559    477.03655   -76.071666    32966.302 
   64100     286.5772   -1381.6695    508.14404    436.86671    -319.9561    32966.302 
   64200     300.5471   -1351.9556    512.03407    534.34894    484.14367    32966.302 
   64300     311.0126   -1318.5536    535.14126    638.71228     141.8581    32966.302 
   64400    296.51271   -1303.4724    546.80221    599.15275    313.42215    32966.302 
   64500    296.08705   -1312.4448    529.33636    570.76815    384.72512    32966.302 
   64600    305.30792   -1336.3852    522.61442    582.26881    281.85757    32966.302 
   64700    311.14255   -1351.5706    522.85745    594.00568    286.30212    32966.302 
   64800    311.97781   -1365.7223     520.3266    581.14235    721.24796    32966.302 
   64900    307.80811   -1349.0471    516.91364     575.3384    854.14178    32966.302 
   65000    311.15298   -1392.3181    530.74997    561.19835    878.93455    32966.302 
   65100    304.33601   -1382.6716    506.78794    515.71178   -24.877708    32966.302 
   65200    287.44668   -1370.0558    504.42236    448.73447   -380.08306    32966.302 
   65300    302.62579   -1350.1763    498.59571    532.19479   -318.71976    32966.302 
   65400    312.46331   -1372.7783     526.1327    582.11246    659.25443    32966.302 
   65500    303.80364   -1333.7848    527.20453    582.58087    577.16162    32966.302 
   65600    300.48906   -1339.9546    529.11832    563.16874    25.001124    32966.302 
   65700    298.97402   -1331.2975    514.27134    550.05129   -201.66404    32966.302 
   65800    294.32877   -1338.2034    536.65335    544.28667   -122.92854    32966.302 
   65900    291.38406   -1344.1351    512.40572    500.64243    966.35721    32966.302 
   66000    304.04354    -1363.858    516.85705    543.25714   -180.72606    32966.302 
   66100    307.88408   -1350.9515    523.02699    579.89472    -382.3001    32966.302 
   66200    295.65213   -1330.0796    514.87502    536.68328    204.35048    32966.302 
   66300    304.95797   -1291.5039     523.2509    626.18643    505.96262    32966.302 
   66400    296.91769   -1355.1137    497.21912    499.78011   -564.62896    32966.302 
   66500    291.41492   -1331.0046    526.34156    527.84992    33.892661    32966.302 
   66600    288.24582   -1327.2374    534.74222    525.52685    297.77632    32966.302 
   66700    305.13622   -1336.5795    542.53732    601.21234    283.60255    32966.302 
   66800    293.63356   -1322.5854     527.5661    547.63853    684.89176    32966.302 
   66900     308.5466   -1318.6374    540.62974    632.84093    760.17383    32966.302 
   67000    304.91065   -1316.6327    545.26061    622.85095    617.19592    32966.302 
   67100    306.28043   -1346.9838    534.36697    587.86957    592.07159    32966.302 
   67200    299.06503    -1300.225    524.49987    591.76842    814.20213    32966.302 
   67300    297.63164   -1341.4402    533.88997    553.38907   -3.8857278    32966.302 
   67400    296.42729   -1359.3429    547.88917    543.97866   -288.71845    32966.302 
   67500     298.6983   -1355.6557    500.92969    511.09067    243.84922    32966.302 
   67600    296.19317   -1362.2701    557.28326    549.37492    64.720348    32966.302 
   67700    301.33443   -1320.7502    517.82633    574.94674   -35.976184    32966.302 
   67800    297.15247     -1395.57    529.37078    492.54905    566.96943    32966.302 
   67900    294.81455   -1398.3473    528.12336    477.83409    1067.5629    32966.302 
   68000    294.62049   -1445.2342    516.04694    417.98338    1108.5642    32966.302 
   68100    303.42037   -1397.8762    527.20344    516.73593    1155.4559    32966.302 
   68200    288.95382   -1392.1713    525.01247    454.10061     1198.486    32966.302 
   68300    301.86841    -1378.868    516.70713    518.15136    588.14007    32966.302 
   68400    300.16661   -1375.5644    525.96605    522.93226    559.07309    32966.302 
   68500    291.21211   -1415.9256    530.12101    445.78105    285.43405    32966.302 
   68600    307.75712    -1401.924    524.13153    529.44628    496.34224    32966.302 
   68700    301.66846   -1358.2219    528.11761    549.29366   -199.56812    32966.302 
   68800    287.07796   -1359.3718    521.37223     474.6824   -923.67001    32966.302 
   68900    301.62302   -1334.7231    526.17686    570.64394   -539.81214    32966.302 
   69000    296.48339   -1382.8622    551.68714    524.51386   -357.91752    32966.302 
   69100    306.66685   -1360.7198    506.38112    547.91471   -308.06031    32966.302 
   69200    297.86618   -1376.0549    549.77354    535.73036   -320.42818    32966.302 
   69300    307.15563   -1406.2608    549.05021    547.27775    -744.0139    32966.302 
   69400     297.7903   -1420.1235    503.79295    445.33418   -440.13143    32966.302 
   69500     302.3792   -1396.4481    521.12433    507.32406    75.812526    32966.302 
   69600    299.61421   -1432.7141    546.21563    483.50632     264.3344    32966.302 
   69700    291.27877   -1430.8227    528.77686    429.84454     135.1708    32966.302 
   69800    298.50545   -1388.2533    513.95523    490.63685   -298.20081    32966.302 
   69900    290.00562    -1416.036    517.10371    427.13657   -190.38086    32966.302 
   70000    299.79648   -1394.6105    518.56169    494.78938   -182.48264    32966.302 
   70100    303.28957   -1366.5838    522.66285    542.88961    11.004932    32966.302 
   70200    306.36555   -1377.3768    523.53955    547.03843    77.930662    32966.302 
   70300    295.30988   -1356.6165    544.79323    538.49967   -653.40352    32966.302 
   70400    294.51668   -1353.1037    512.86085    506.45311    329.99697    32966.302 
   70500    300.65659   -1345.1959    515.98875    545.56399    18.206021    32966.302 
   70600    293.39936   -1334.2891    526.19718    533.49503   -316.43377    32966.302 
   70700    293.54464   -1381.5288    537.11175    497.83414   -343.73908    32966.302 
   70800    302.81146   -1308.3442    541.18021    617.46039   -382.18801    32966.302 
   70900    298.10017   -1329.8476    555.00352    588.23758   -220.58468    32966.302 
   71000    295.39666   -1294.2933    520.53094    576.95738   -519.28206    32966.302 
   71100    313.99808   -1318.5012    522.56072    639.83541    467.23775    32966.302 
   71200    310.95978   -1332.0646    497.60889    587.42731    265.97328    32966.302 
   71300    312.45122   -1397.9592    519.46178    550.20535   -184.32116    32966.302 
   71400    297.63111   -1357.7233    537.95898    541.17257   -34.093645    32966.302 
   71500    309.16884   -1305.1594    532.85146    641.38592    387.81567    32966.302 
   71600     301.4741   -1383.5332    529.71052    524.68652   -144.60663    32966.302 
   71700    298.37498   -1350.1526    518.03098    532.21669    815.49394    32966.302 
   71800    310.91362   -1348.4681    505.00327    578.20715   -94.770668    32966.302 
   71900    311.60681   -1411.4117    498.88844    512.31842    484.94301    32966.302 
   72000    301.44832   -1377.4106     531.0401    532.02081    215.48557    32966.302 
   72100    304.66843   -1362.6009    526.41755    556.93206    233.91724    32966.302 
   72200    296.42037   -1377.2872    488.78841    466.90189    331.59062    32966.302 
   72300    292.58313   -1391.3027    508.62346    455.17541   -15.193517    32966.302 
   72400     299.7366   -1348.5073    529.63955    551.69663   -445.45651    32966.302 
   72500    300.46308   -1377.3082    542.50039    539.07846   -344.60697    32966.302 
   72600    291.59811   -1397.3535    563.56272    499.55985   -28.771212    32966.302 
   72700    303.68879    -1385.069    512.30382    515.87079    519.40657    32966.302 
   72800    295.53534   -1358.3945    519.93993    512.89932    515.72566    32966.302 
   72900    294.24823   -1407.5455    538.45993    476.38284    19.689312    32966.302 
   73000    293.32675   -1377.1202    546.19812    510.33286   -245.31694    32966.302 
   73100    300.29436   -1314.4187    507.36427    566.06036    596.14618    32966.302 
   73200    309.40568   -1343.6679    554.63949    625.74839   -4.0283427    32966.302 
   73300    298.95952   -1342.5383    524.22421    548.69709   -166.63052    32966.302 
   73400    296.21336   -1322.4372    531.33758    563.35456     80.20481    32966.302 
   73500    307.58433   -1352.6348    564.32181    618.13563   -76.111794    32966.302 
   73600    298.64813   -1402.0031    548.46839    512.05262   -481.04109    32966.302 
   73700    307.39827   -1391.6795    509.46354    523.38188   -397.33736    32966.302 
   73800    309.13039   -1372.0914    533.82611    575.25283     263.0283    32966.302 
   73900    295.74517   -1359.7261    538.02979    530.61706   -83.903112    32966.302 
   74000    300.98506    -1355.679    542.11878    562.71278   -121.92107    32966.302 
   74100    302.94819   -1347.7241    514.07081     551.5963    108.29272    32966.302 
   74200    294.23084    -1390.154      530.183    485.41791    416.74338    32966.302 
   74300    294.06364   -1368.0386    530.28742    506.87323    367.67179    32966.302 
   74400    302.02676   -1316.2547    531.92468    596.70624    835.31621    32966.302 
   74500    305.20453   -1357.5831    549.22399    587.20766     511.6214    32966.302 
   74600    288.70607    -1361.872    549.74529    507.99983     1220.873    32966.302 
   74700    298.37545   -1358.3586    527.62833     533.6102    399.71615    32966.302 
   74800    305.12393   -1369.1995    536.39678     562.3956    214.13315    32966.302 
   74900    295.35314     -1390.73    528.04403    487.83475   -72.117147    32966.302 
   75000    302.12816   -1425.1604    514.21568    470.55522    676.22652    32966.302 
   75100     291.1967   -1391.6131     513.2065    453.10857   -38.590646    32966.302 
   75200    303.00968   -1430.0169    532.65203    488.16586   -203.48297    32966.302 
   75300    302.86381   -1399.5564    499.96125    485.26858   -140.17384    32966.302 
   75400    306.71495   -1402.1087     493.6884      494.053   -18.905876    32966.302 
   75500    301.00236   -1394.3918    510.93373    492.89402   -463.91498    32966.302 
   75600    305.15139   -1366.2497    563.44107    592.51518   -355.43407    32966.302 
   75700     303.7306   -1349.3537    534.39949    573.87298    386.40305    32966.302 
   75800    297.57684   -1351.3961     544.2632    553.55585    160.93112    32966.302 
   75900    298.14849   -1388.0641    551.28937    526.52794   -801.95539    32966.302 
   76000    301.29668   -1384.2751    525.40643    518.82929    839.85629    32966.302 
   76100     298.1756   -1367.0844    532.08271    528.42494    1254.3483    32966.302 
   76200    299.54978   -1382.5896    560.31743    547.43794    298.93155    32966.302 
   76300    302.93988   -1418.0765    546.34272    513.47784    961.77371    32966.302 
   76400    293.39737   -1399.1264    538.52377    480.97524    657.71615    32966.302 
   76500    300.16802   -1399.6449    519.07554    491.96776     127.8353    32966.302 
   76600    299.87353   -1434.1077    527.72473    464.80755    320.23268    32966.302 
   76700    296.04289   -1379.9843    514.77393    488.46431    239.81702    32966.302 
   76800    292.19736   -1369.5619    549.64615    516.17495   -331.40776    32966.302 
   76900    290.23141   -1409.8684    538.10991    455.34287    -359.0353    32966.302 
   77000    302.40689   -1380.0048    517.61815    520.38776   -200.51079    32966.302 
   77100    293.96677   -1418.6299    526.56318    452.11474    336.14467    32966.302 
   77200    304.38213   -1481.2437    550.98998    461.55263   -463.09593    32966.302 
   77300    301.89908   -1406.1323    559.70073    534.02086    514.69802    32966.302 
   77400    301.42369   -1374.0167    547.03289    551.29491    642.05933    32966.302 
   77500    304.73141   -1399.0746    536.52712    530.85598   -111.24627    32966.302 
   77600    309.09012   -1444.2475    521.28696    490.37335   -10.442634    32966.302 
   77700    294.36955   -1463.1237     546.4852    429.38466   -153.59842    32966.302 
   77800    302.92099   -1409.5001    548.09075    523.71588     338.1333    32966.302 
   77900     306.0722   -1463.5857    531.46498    467.41359   -321.46794    32966.302 
   78000    310.99243   -1410.1692    561.70766    573.57083    169.52475    32966.302 
   78100    302.02567    -1461.309    531.40106     451.1234    264.85199    32966.302 
   78200      298.748   -1461.0829    528.97014    433.93117    21.370251    32966.302 
   78300    311.61602   -1419.3309    541.81894    547.37177    168.35575    32966.302 
   78400    303.50391   -1428.7481    534.51157    493.55408   -4.3436187    32966.302 
   78500    296.22666   -1430.4531    534.11949    458.18136   -272.94018    32966.302 
   78600    303.89942   -1400.4734    555.42029    544.54606   -644.25268    32966.302 
   78700    310.90408   -1349.4319    511.76588    583.96233    57.033207    32966.302 
   78800    304.04648     -1400.32     548.0267    537.97834    279.69147    32966.302 
   78900    301.85322   -1397.1877    562.99558    546.05063   -28.981196    32966.302 
   79000    294.60994   -1405.4502    530.55489    472.22707    -63.82306    32966.302 
   79100    295.58506   -1402.7918    531.81897    480.60843    188.50054    32966.302 
   79200    296.28919   -1467.9242    544.55416    431.43089   -22.266159    32966.302 
   79300    306.28514   -1465.6048    504.25692    439.16007    16.480485    32966.302 
   79400    296.91631   -1437.7129    513.32746    433.28304    528.68655    32966.302 
   79500    303.00558   -1391.3432    540.99733     535.1661    199.03061    32966.302 
   79600    308.09638   -1386.2489    527.81605    550.35713    105.59631    32966.302 
   79700    299.12943   -1370.0273    536.43441    534.19518    71.565744    32966.302 
   79800    294.97437   -1390.5301    528.65346    486.91217    -580.1591    32966.302 
   79900    301.15725   -1389.3042    536.11549    523.87163   -328.99925    32966.302 
   80000    300.35258   -1341.9164    523.08056    554.54518    165.26003    32966.302 
   80100    291.88657   -1379.6798    544.86564    499.85548     49.21643    32966.302 
   80200    293.96797   -1386.0179    546.12737    504.29641   -460.09858    32966.302 
   80300     305.5453   -1369.2931    549.78746    577.61937   -282.50846    32966.302 
   80400    308.20726   -1379.5992    526.55938     556.2572    756.90939    32966.302 
   80500    301.18257   -1401.1114    519.27634     495.3411    403.10778    32966.302 
   80600    309.19707   -1405.2183    556.45108    565.05573    110.10801    32966.302 
   80700    289.78118   -1415.5491    546.37062    455.86412    138.17451    32966.302 
   80800    297.13033   -1387.2652    519.29042     490.6723   -57.992352    32966.302 
   80900    299.91354   -1420.4125    552.87021    503.83116   -325.08183    32966.302 
   81000     309.8422     -1396.29    561.53877    582.02168    307.88211    32966.302 
   81100    287.60984    -1362.348     521.7399    474.50592   -225.79384    32966.302 
   81200    294.63253    -1421.095    557.92974    484.06039   -562.40554    32966.302 
   81300    307.62597   -1444.3244    507.33721    469.65186    200.19234    32966.302 
   81400    304.40816   -1387.2587    527.85806    532.52475    174.79536    32966.302 
   81500    312.46775    -1383.421    554.60219    599.95957     -1295.56    32966.302 
   81600    300.61288   -1432.9327    522.22036    463.85886   -319.74774    32966.302 
   81700    305.49728    -1340.774    535.40997    591.54144   -398.23253    32966.302 
   81800    292.19508    -1372.924    536.44647    499.60279   -1155.1499    32966.302 
   81900     297.6585   -1377.1618    561.89654    545.79686    72.493175    32966.302 
   82000    292.57044   -1395.0929     535.4561    478.15989    529.17206    32966.302 
   82100    295.35131   -1378.3321    542.32998    514.51022   -12.542668    32966.302 
   82200    305.41243   -1375.4366    530.52678    551.60759   -292.00621    32966.302 
   82300    298.46918   -1418.4035     528.3893    474.75478   -107.84085    32966.302 
   82400    292.95044   -1399.5188    526.11674    466.13219    457.04437    32966.302 
   82500    297.51423   -1408.8457     541.5991    493.15589    265.94458    32966.302 
   82600    300.25643   -1413.6096    549.72843    509.06018     -347.312    32966.302 
   82700    291.98563   -1444.2601     483.6645    374.52694    640.05932    32966.302 
   82800    299.24726   -1423.7083     541.5408    486.15933    87.888959    32966.302 
   82900    306.61859   -1433.3242    565.64623     534.3548   -722.98696    32966.302 
   83000    303.76418   -1433.5975    509.10294    464.48622   -71.154728    32966.302 
   83100    302.53539   -1430.6982    539.45666    492.12047   -484.25032    32966.302 
   83200    303.37537    -1400.656    553.01808    539.56493   -1651.0609    32966.302 
   83300    303.91579     -1359.42    536.06524    566.31922   -997.60383    32966.302 
   83400    291.68981    -1345.815    545.06724    533.02212   -392.42308    32966.302 
   83500    296.62919     -1436.12    550.70645    470.94197   -359.37764    32966.302 
   83600    296.58435   -1446.1507    549.74479    459.74458   -296.91596    32966.302 
   83700    303.99419   -1400.2558    538.46794    528.24466   -166.96665    32966.302 
   83800    308.45304   -1378.0082       569.44    601.85261   -967.29053    32966.302 
   83900    306.16932   -1407.4487    580.26435      572.794   -657.03146    32966.302 
   84000    299.27864   -1380.2355     555.2392    543.47399    127.29389    32966.302 
   84100    293.66527   -1376.1061    517.67272    484.36946    277.20978    32966.302 
   84200    302.50343    -1400.784    558.65515    541.08701    80.924627    32966.302 
   84300    312.25037   -1486.5875    556.14842    497.34527    383.78539    32966.302 
   84400     304.3948   -1420.5072    523.78805    495.14514    417.91862    32966.302 
   84500    300.08515   -1430.1767    566.84401    508.82548   -121.13838    32966.302 
   84600    298.76474   -1425.8214    529.47067    469.76978   -106.31928    32966.302 
   84700    304.68664   -1425.0191    534.78909    502.96876   -375.36179    32966.302 
   84800    311.43862   -1386.5854     587.6002    625.08739   -487.19262    32966.302 
   84900    302.42065   -1390.7112    542.65989      534.786    648.57096    32966.302 
   85000    299.81136   -1392.8553     541.4988    519.54975    366.20188    32966.302 
   85100    308.24023   -1429.4969    555.52066    535.47148    334.43411    32966.302 
   85200    296.25952   -1395.6164    562.72679    521.77559   -270.25617    32966.302 
   85300    311.39213    -1414.589    521.83547    531.10646    324.51781    32966.302 
   85400    291.28351   -1461.8749    532.42262    402.45984    220.21679    32966.302 
   85500    311.04403   -1397.9918    544.99114    569.26767    490.03213    32966.302 
   85600    293.29879   -1388.0003    542.50731    495.63408    746.43235    32966.302 
   85700    303.86459   -1375.2475    539.44767    553.64001    1629.7186    32966.302 
   85800    308.47384   -1424.9398    548.16085      533.737    743.36279    32966.302 
   85900    305.89503   -1349.9126    551.90749    600.71905    972.32261    32966.302 
   86000    303.75433   -1359.5599    528.62339     557.9992    1015.1549    32966.302 
   86100     306.0279   -1409.1765      556.274    546.42927    676.71572    32966.302 
   86200    292.46174   -1397.4396    541.05566    480.91564    306.02576    32966.302 
   86300    299.80706   -1397.3036    517.25057    490.83348   -81.002028    32966.302 
   86400     298.2948   -1425.3288    515.71537    454.35821     432.8436    32966.302 
   86500    300.99492    -1431.218    563.62992    508.72999    151.77931    32966.302 
   86600    305.89416   -1435.9144    528.47332    491.27912    -641.0722    32966.302 
   86700    305.05729   -1414.0257    551.41548    532.28334   -698.54339    32966.302 
   86800    301.85058   -1387.7829    528.52166    520.96941   -323.56123    32966.302 
   86900    295.63498   -1431.6445    531.26566    451.43064    -285.6138    32966.302 
   87000     298.2463   -1412.4421    540.61799    491.92581    94.168701    32966.302 
   87100     306.5905   -1396.0147    535.14175    541.03127    59.612793    32966.302 
   87200    307.86093   -1331.5085    545.88242    622.08732     368.8841    32966.302 
   87300     297.4478   -1404.5346    560.88388    516.44795    235.77449    32966.302 
   87400    290.04248   -1390.1276    544.52147    480.63131    -81.36821    32966.302 
   87500    293.74822   -1428.0534    529.91146    445.04016    88.002428    32966.302 
   87600    308.67938   -1419.7495      518.236     509.9423    87.310793    32966.302 
   87700    294.63436   -1443.5945    528.16411    431.80362   -197.68828    32966.302 
   87800    289.80694   -1402.2079    539.86612    462.81864    50.868988    32966.302 
   87900    293.29136   -1402.0478    555.65745    494.70272    665.86655    32966.302 
   88000    309.19356   -1390.3225     506.0514    529.53576    848.56036    32966.302 
   88100    301.37673   -1430.5439    543.66131    491.18135   -136.51366    32966.302 
   88200    297.97403   -1405.5699    531.85595    488.79103    101.04026    32966.302 
   88300    294.25337   -1396.9756    536.17515    484.69147    254.55636    32966.302 
   88400    302.22501   -1402.8859    538.41024    517.46707   -524.85894    32966.302 
   88500    296.96609   -1428.8201    528.13467    457.21057   -985.03561    32966.302 
   88600    304.96036   -1430.4014     530.2119    494.26078   -39.353324    32966.302 
   88700    305.59826   -1427.0529    553.54711    523.86133   -611.86775    32966.302 
   88800    302.75728   -1418.1831     538.4038    504.59734   -280.87821    32966.302 
   88900    313.48162   -1447.8154    552.01641    537.61532    462.75641    32966.302 
[...]
  985600    308.38261   -1455.2046    565.88805    520.78223    413.72067    32966.302 
  985700    301.96457   -1426.9697     548.2014    501.98356    248.43679    32966.302 
  985800    293.63622   -1436.7443    600.16517    506.09087    132.13072    32966.302 
  985900    305.36928   -1451.1037    584.91111    530.12752   -42.126379    32966.302 
  986000    292.94929    -1435.505    570.59864    474.62261    396.51628    32966.302 
  986100    301.74176   -1382.2391    604.05035    601.54437    567.02029    32966.302 
  986200    300.86442   -1435.4288    554.26954    494.56211    326.65214    32966.302 
  986300    296.84347   -1475.0503    562.50195    444.78698   -96.512936    32966.302 
  986400    312.84948   -1419.4869    590.23501    601.27192    -123.0071    32966.302 
  986500    305.49354   -1441.4558    559.02224     514.4548   -213.24176    32966.302 
  986600    304.11645   -1422.4845     575.8162    543.92321    -452.9721    32966.302 
  986700    304.10884   -1450.1143      544.599    485.04137   -63.542564    32966.302 
  986800    300.52036   -1420.8145    611.26825    564.60191    -119.0232    32966.302 
  986900    299.93339   -1422.9394    585.08222    533.60699    214.35754    32966.302 
  987000    293.79051   -1378.7153    584.47426    549.13452    31.168288    32966.302 
  987100    297.45987   -1411.1203    597.96922    547.00276    288.85052    32966.302 
  987200    295.43526   -1436.8134    588.24637    502.32922    404.04307    32966.302 
  987300    302.78714    -1429.925    565.20957    519.79778    510.99192    32966.302 
  987400    294.16191   -1435.0638    579.55596     489.5659    807.83643    32966.302 
  987500    295.99318   -1448.5692    573.85388    478.73209    901.59792    32966.302 
  987600    295.75337   -1428.7616    594.93567    518.52492    965.67325    32966.302 
  987700    302.06059      -1438.2    581.73922    524.73019    323.77586    32966.302 
  987800    309.92653   -1412.5924    599.00435    603.57041    185.85825    32966.302 
  987900    297.72853    -1426.885     578.7737    513.27103   -629.13296    32966.302 
  988000    292.24904   -1371.4248    585.02095    549.92316   -119.54113    32966.302 
  988100    300.52475   -1376.3975    563.74369    561.51444   -544.00372    32966.302 
  988200    302.86125   -1462.0909    603.21713    525.97827   -262.91547    32966.302 
  988300    299.57004   -1461.9606    566.58634    474.42845    562.53816    32966.302 
  988400     295.5853   -1475.0024    588.55384    465.13379    436.19596    32966.302 
  988500    295.47798   -1462.6555    573.05449    461.49058   -78.935563    32966.302 
  988600    307.59738   -1438.6073    560.42907    528.33005    -828.2505    32966.302 
  988700    303.08799   -1434.4796    557.22917    508.63835   -520.49423    32966.302 
  988800    304.86247   -1420.8684    566.24693    539.38132   -1379.8503    32966.302 
  988900    292.33801   -1396.1333    586.62625    527.22681   -1352.3687    32966.302 
  989000    308.54086   -1418.8523    583.68962    575.65976   -1627.1143    32966.302 
  989100    300.36544   -1372.0125    628.63307    630.06036   -1581.1222    32966.302 
  989200    291.74102   -1373.7437    570.74299    531.00333    -754.6777    32966.302 
  989300    299.99473   -1406.3231    573.13195    538.55348   -467.75555    32966.302 
  989400     306.4184   -1401.0729    563.46334    563.50775   -277.66127    32966.302 
  989500    300.98801   -1387.2644    594.93935    583.96145    -965.9574    32966.302 
  989600    300.33363   -1409.0186    583.91792     548.1936    20.010197    32966.302 
  989700    296.59807   -1391.2328    569.82731    534.80777   -629.16934    32966.302 
  989800    305.11632   -1437.8419    567.75789    525.07947   -463.19173    32966.302 
  989900    305.65641    -1436.272    585.37213    546.73324   -557.47844    32966.302 
  990000    302.92365    -1432.171    584.50286    537.46924   -380.08303    32966.302 
  990100    292.35272   -1423.1122     599.6202     513.3091   -511.01561    32966.302 
  990200    299.55445   -1440.3576    544.22456    473.59838   -71.081386    32966.302 
  990300    311.31697   -1455.5815    573.43815    541.37299   -1179.1909    32966.302 
  990400    298.75403   -1471.5058    580.80818    475.37387   -563.20498    32966.302 
  990500    310.32362   -1436.5839    554.05632    536.44661   -332.34247    32966.302 
  990600     290.7472   -1439.0661     587.6351     478.0288    159.82145    32966.302 
  990700    296.17662   -1437.3348    599.54894    516.50035   -350.15017    32966.302 
  990800    302.43195   -1442.4205    551.21393    491.68244    431.58008    32966.302 
  990900    300.16198   -1434.3224    571.21878    509.40581    184.84195    32966.302 
  991000    302.65579   -1467.0955     573.0353    489.85234    24.935661    32966.302 
  991100    300.17829   -1447.5761    572.24525    497.25314    208.08365    32966.302 
  991200    299.33852   -1439.0021    586.08359    515.82564    252.69016    32966.302 
  991300     300.5603    -1467.851    587.15312    493.63294    92.759013    32966.302 
  991400    308.04946      -1461.7    546.90152    493.77702    40.738608    32966.302 
  991500    306.27457   -1454.1726    549.39854    495.68554    418.63559    32966.302 
  991600    308.25442   -1449.4445    582.48562    542.55375   -144.42716    32966.302 
  991700    289.96074   -1438.9814    565.90347     452.7857    89.422782    32966.302 
  991800    296.56352   -1433.6754    593.03248    515.41236    65.587945    32966.302 
  991900    298.22781   -1473.0648     573.8595    464.46001   -414.99384    32966.302 
  992000    299.33052   -1452.8879    574.51563    490.33527    642.19365    32966.302 
  992100    290.87943   -1447.1611     560.8146    443.71795    340.73119    32966.302 
  992200    299.30133   -1441.0807     544.6796      472.173     481.5671    32966.302 
  992300    290.84085   -1473.2587    590.09302    446.72238    470.84597    32966.302 
  992400    297.22908    -1488.402    583.14103    453.83765    50.953956    32966.302 
  992500    296.37932    -1455.419     556.1543    455.94827   -112.40447    32966.302 
  992600    296.74579    -1457.436    559.97285    459.42548   -219.27051    32966.302 
  992700    308.50953   -1484.8621    565.38245     491.1995   -318.67809    32966.302 
  992800    306.21814   -1491.5431    596.05004    504.70859     18.86557    32966.302 
  992900    302.91032   -1432.8708    585.50584    537.71141    170.64413    32966.302 
  993000    294.07145    -1402.712    585.97559     527.9237    112.31658    32966.302 
  993100    301.54978   -1425.1033    594.73769    548.48966    533.87585    32966.302 
  993200    305.59422   -1435.0021    578.09301    540.43964    23.766464    32966.302 
  993300    297.60415    -1477.984    538.62218     421.4518   -200.51912    32966.302 
  993400    294.86957   -1463.8753     563.6145    448.04877   -633.93784    32966.302 
  993500    309.47453   -1406.3533    587.36108    596.09941   -396.72443    32966.302 
  993600     303.9845   -1411.2137    559.40984    538.18431   -135.06892    32966.302 
  993700    309.47125   -1456.0445    538.37867    497.41085    30.638385    32966.302 
  993800    299.21828   -1492.8976    551.99331    427.28999    341.72173    32966.302 
  993900    301.27007   -1484.8136    546.28713    439.04975    368.06114    32966.302 
  994000    285.97208   -1489.5407     555.0805    373.16507    458.00528    32966.302 
  994100    291.89827   -1466.5512    591.47313    459.64507   -54.734867    32966.302 
  994200    297.61141   -1462.6809    568.91459    467.08055    203.36888    32966.302 
  994300    300.23086    -1430.621    580.14244    522.34585    588.27656    32966.302 
  994400    291.82818   -1422.0693    576.30037    488.63373    493.89516    32966.302 
  994500    283.73976   -1448.5104    595.26063    444.16803    587.18382    32966.302 
  994600    292.46153   -1442.6245    604.37807    499.05221    920.80471    32966.302 
  994700    299.07992   -1468.5112    590.06485    489.11529    1633.1042    32966.302 
  994800    306.32303   -1432.4977    561.86935    530.05295    1777.5182    32966.302 
  994900    297.21538   -1434.5938    583.88863    508.33077    562.55953    32966.302 
  995000     294.7824   -1447.3431    571.73295    472.30085    902.34464    32966.302 
  995100     297.4943   -1442.5542    565.25487    483.01195   -457.33191    32966.302 
  995200    292.32359   -1430.5336     591.3007    497.43497   -607.78645    32966.302 
  995300    305.15442   -1418.2035    563.37708    540.51132    94.515027    32966.302 
  995400    302.32298   -1407.3437    570.45634    545.50345   -371.31415    32966.302 
  995500    303.31944   -1459.5805    560.65113    488.01777   -694.89675    32966.302 
  995600    306.75084   -1437.2491    577.48932    542.87766   -514.23252    32966.302 
  995700    286.32261    -1420.306    555.64544    444.56748   -336.67833    32966.302 
  995800    302.94248   -1422.6511    564.34644    526.91885    213.06984    32966.302 
  995900    292.23507     -1420.96    567.78113    483.08428   -90.737446    32966.302 
  996000    310.36591   -1409.3875    571.66357    581.44368    366.16443    32966.302 
  996100    307.45582    -1446.847    558.66691    517.68088   -44.238682    32966.302 
  996200    293.75603    -1452.589    611.51372    502.14256   -577.18456    32966.302 
  996300    303.97467    -1470.235    568.86897    488.57723   -261.07752    32966.302 
  996400    295.66774   -1395.1084    581.87094    538.72178   -101.34473    32966.302 
  996500    287.54038   -1380.2189    584.21285    518.79032   -1073.8408    32966.302 
  996600    305.15704   -1383.1233    546.14951    558.37582    91.140042    32966.302 
  996700    296.70139   -1410.5602    581.02743    527.15291    13.719666    32966.302 
  996800    294.81346   -1427.6633    601.24585    521.63558      1063.16    32966.302 
  996900    304.22937   -1429.3039    602.25687    564.06082    463.38541    32966.302 
  997000     299.9483   -1419.8522    530.39613    482.07634    842.01542    32966.302 
  997100    294.41112   -1457.9915     562.9413    451.16312    1417.3115    32966.302 
  997200     299.6132   -1460.4071    589.70304    499.29607    446.35365    32966.302 
  997300     312.0547   -1414.0809    547.94763    560.75637    1136.3551    32966.302 
  997400    292.18072   -1439.6225     552.3775    448.76964    625.24165    32966.302 
  997500     297.1585   -1434.1163    588.46051       513.12   -348.58293    32966.302 
  997600    304.21402   -1455.8273    557.75687    492.96719   -516.93081    32966.302 
  997700    298.84886   -1470.5595    546.71497     442.6606   -275.85857    32966.302 
  997800    306.43416    -1443.078    578.56367    536.67501    -299.0062    32966.302 
  997900    301.02041    -1399.396     566.0805    543.11912   -249.57071    32966.302 
  998000    300.76854   -1453.3502    569.58103    491.51382     85.88628    32966.302 
  998100    304.06709   -1418.4385    579.71882     551.6461    532.78691    32966.302 
  998200    294.11932   -1415.2545    544.97025    474.59476    200.91289    32966.302 
  998300    306.11689   -1455.9149    546.79374     490.6175   -354.17061    32966.302 
  998400    309.61796   -1443.8978    562.30026    534.15001    441.95835    32966.302 
  998500    295.83821   -1488.0385    565.53897    430.23925    447.79496    32966.302 
  998600    295.11859   -1462.6877    553.35789    440.11839    30.196106    32966.302 
  998700     296.2884   -1468.3384    570.65865    457.11756    44.094507    32966.302 
  998800    311.43382   -1474.5683    523.65762    473.13998    503.15557    32966.302 
  998900    291.34602   -1496.5035    547.87388    383.56829   -209.67186    32966.302 
  999000    308.99918   -1484.9117    548.73865    476.74505   -581.36259    32966.302 
  999100    308.05161   -1501.7933     558.9108     465.7028    89.568076    32966.302 
  999200    313.87131   -1461.6384    520.42449    493.98233   -14.471205    32966.302 
  999300    289.90373   -1445.6978    578.25348    458.15866   -316.63661    32966.302 
  999400     291.2247   -1457.1266    573.88071     448.3973    247.94649    32966.302 
  999500    290.04964   -1472.1103    529.79201    383.95191    106.00006    32966.302 
  999600    296.31105   -1451.5769    603.62436    506.94827    607.39564    32966.302 
  999700    311.51992   -1449.9258    555.72071    530.23926    829.10482    32966.302 
  999800    294.55196   -1503.5415    557.32057    400.63634    595.24018    32966.302 
  999900    297.78048   -1441.4835     553.1604    473.29678    526.93976    32966.302 
 1000000    307.82654   -1488.2754     551.0778    470.35852   -479.48443    32966.302 
 1000100    291.34549   -1470.7099    579.82923    441.31484   -32.354336    32966.302 
 1000200    299.50102   -1476.9941    545.44098    437.93409    701.88021    32966.302 
 1000300    296.38437    -1493.036    522.94629    385.14637    320.10053    32966.302 
 1000400    305.19624   -1513.5086    569.86779    451.88811   -7.4306106    32966.302 
 1000500    295.17005   -1465.3199    544.07166    428.43532    1.9828104    32966.302 
 1000600    294.91078   -1471.6683    540.32586    417.15556   -260.08826    32966.302 
 1000700    303.91362    -1492.705    582.77023    479.72933    301.73282    32966.302 
 1000800    295.32315   -1520.6254     538.5598    368.31799    361.12276    32966.302 
 1000900    298.56674   -1496.8042    527.38808    395.79902   -133.99058    32966.302 
 1001000    297.63621   -1457.2096    552.08916    455.83979    -165.1128    32966.302 
 1001100    306.92637   -1458.2227    527.04387    472.26117    133.06099    32966.302 
 1001200    286.35401    -1458.429    535.48195    386.42461   -208.43835    32966.302 
 1001300    302.85369   -1491.4561    551.05051    444.41191   -506.61363    32966.302 
 1001400    299.10319   -1498.4088    546.20957     415.4688    -388.1695    32966.302 
 1001500    295.66025   -1507.8061    551.02682    395.14568    42.038691    32966.302 
 1001600     292.9153   -1448.0007    547.13582    438.50871   -5.5998807    32966.302 
 1001700    299.82716   -1510.1751    535.46033    396.26373    368.43772    32966.302 
 1001800    297.57996   -1477.0858    555.86945    439.48659    259.45998    32966.302 
 1001900     310.5801   -1461.5784     527.7744    486.34294    695.44875    32966.302 
 1002000    299.66826   -1429.3577    549.75496    490.64909   -29.223833    32966.302 
 1002100    304.36263   -1418.5344    554.00483    527.18765   -468.76963    32966.302 
 1002200    303.23175   -1448.9619    555.86935    493.45361   -808.66743    32966.302 
 1002300    295.03805   -1455.1533    571.14106    465.06772   -366.84059    32966.302 
 1002400    297.12254   -1411.7605    541.45137    488.30231   -170.50943    32966.302 
 1002500    293.68043   -1448.9035    579.22498    473.19369    532.77768    32966.302 
 1002600     298.6238   -1438.1035    547.27587    474.64837     502.6176    32966.302 
 1002700    300.14179   -1459.9476    540.06281    452.53235    925.54848    32966.302 
 1002800    306.97311   -1493.2925    555.97226    466.33353    49.598446    32966.302 
 1002900     304.0088    -1469.029    555.84388    476.91414    172.85582    32966.302 
 1003000    295.94583   -1406.1396    532.00027    479.09155    713.53922    32966.302 
 1003100    298.72779   -1457.6958    577.18242    485.43813   -371.02746    32966.302 
 1003200    298.99471    -1460.915    547.96975    454.22676   -104.14226    32966.302 
 1003300    312.55494   -1429.1972    554.55886    554.53868    60.599186    32966.302 
 1003400    301.79895   -1369.9096    548.27148    558.35648    847.64922    32966.302 
 1003500    290.72293   -1353.6083    565.91159    541.65213    833.63532    32966.302 
 1003600    308.38967   -1392.7191    549.06163    566.47364    502.84028    32966.302 
 1003700    296.54895   -1417.4375    573.78585    512.33697    453.79031    32966.302 
 1003800    306.98609   -1406.6249    602.62606    599.71424    923.21261    32966.302 
 1003900    288.50015   -1425.0588    540.13873    434.26497    853.10409    32966.302 
 1004000    298.88665   -1444.2992    545.58053    467.95924   -157.12334    32966.302 
 1004100     301.1298   -1457.8698    558.20242    477.26748   -765.47118    32966.302 
 1004200    302.69269   -1393.5548    578.98389    569.51033   -521.47084    32966.302 
 1004300    300.86691   -1406.6063     562.6016    531.72803   -843.35552    32966.302 
 1004400    298.70862   -1418.7501    538.74867    485.86245   -417.88287    32966.302 
 1004500     295.2671   -1471.0814    573.13186     452.1778   -115.23242    32966.302 
 1004600    307.04449   -1442.3482    567.77362    529.40557    9.4111043    32966.302 
 1004700     298.9542   -1465.4994    568.58813    470.07556   -155.63543    32966.302 
 1004800    303.10307    -1453.031     548.1392    481.06597    101.34285    32966.302 
 1004900    309.87832    -1443.321    553.61369     527.2307    -61.09087    32966.302 
 1005000    302.49643   -1440.9495    558.04526    500.27958    365.67725    32966.302 
 1005100    303.54212   -1434.3002    596.77896    550.44406    -21.67679    32966.302 
 1005200    300.50701   -1447.6267    564.81116    491.27157   -62.994245    32966.302 
 1005300    298.96757   -1453.1315    537.44837    451.36482    411.63104    32966.302 
 1005400    287.30554   -1512.6947    569.15809      370.186   -252.01203    32966.302 
 1005500    297.08377   -1486.5339    554.39613    426.29631   -566.67391    32966.302 
 1005600    304.61601   -1451.3626    536.35572    477.86891    432.57102    32966.302 
 1005700    293.41079   -1457.1945    566.72335    451.16801     744.1738    32966.302 
 1005800    293.49489   -1433.3567    564.50316    473.17018    844.11538    32966.302 
 1005900    293.27069   -1444.4791     569.7922    466.31167    326.44258    32966.302 
 1006000    297.67507   -1417.7768    578.54778    521.90889   -117.09472    32966.302 
 1006100    293.88472   -1448.8709     576.4647     471.4001   -146.04556    32966.302 
 1006200    304.68951   -1453.6284    544.07969    483.66316   -273.01198    32966.302 
 1006255    310.98876   -1442.2388    564.81906    544.59585   -360.62323    32966.302 
Loop time of 605.135 on 32 procs for 1000000 steps with 1535 atoms

Performance: 142.778 ns/day, 0.168 hours/ns, 1652.524 timesteps/s
100.0% CPU use with 32 MPI tasks x no OpenMP threads

MPI task timing breakdown:
Section |  min time  |  avg time  |  max time  |%varavg| %total
---------------------------------------------------------------
Pair    | 286.23     | 306.33     | 327.42     |  73.5 | 50.62
Bond    | 1.4311     | 1.8057     | 2.3908     |  13.6 |  0.30
Neigh   | 43.715     | 43.789     | 43.854     |   0.7 |  7.24
Comm    | 218.56     | 239.6      | 259.03     |  82.4 | 39.59
Output  | 0.39396    | 0.41198    | 0.9182     |  14.2 |  0.07
Modify  | 9.7488     | 9.916      | 10.156     |   3.6 |  1.64
Other   |            | 3.28       |            |       |  0.54

Nlocal:        47.9688 ave          82 max          10 min
Histogram: 1 0 4 4 3 11 3 4 0 2
Nghost:        2204.06 ave        2288 max        2122 min
Histogram: 3 4 2 4 0 6 6 2 4 1
Neighs:        6118.53 ave       12037 max         899 min
Histogram: 2 2 2 6 6 6 5 1 0 2

Total # of neighbors = 195793
Ave neighs/atom = 127.55244
Ave special neighs/atom = 2.0899023
Neighbor list builds = 49601
Dangerous builds = 0

# Output the system volume
variable v equal vol
print 'The system volume is $v'
The system volume is 32966.3023923928

# Outputs
variable A equal xhi-xlo
variable B equal yhi-ylo
variable C equal zhi-zlo
variable D equal xy
variable E equal xz
variable F equal yz
print 'Lattice vectors'
Lattice vectors
print '$A 0 0'
32.0644217803115 0 0
print '$D $B 0'
0 32.0644217803115 0
print '$E $F $C'
0 0 32.0644217803115
Total wall time: 0:10:11
