LAMMPS data file
 1504 atoms
 1003 bonds
 503 angles
 0 dihedrals
 1 impropers
 4 atom types
 3 bond types
 2 angle types
 0 dihedral types
 1 improper types
 0 15 xlo xhi
 0 15 ylo yhi
 0 15 zlo zhi
 0 0 0 xy xz yz

# Atom types
#
# 1 O_2
# 2 N_2
# 3 H__HB
# 4 O_3

# Bond Coeffs
#
# 1 O_2*N_2
# 2 N_2*H__HB
# 3 O_3*H__HB

# Angle Coeffs
#
# 1 N_2
# 2 O_3

# Dihedral Coeffs
#

# Inversion Coeffs
#
# 1 1

 Masses

 1 16
 2 14.01
 3 1.01
 4 16

 Atoms # full

1 1 1 0 4.89749886763012 3.93797191300097 3.552889200409
2 1 2 0 5.62550338971436 4.51070969900993 4.32129108373728
3 1 1 0 5.56699949632261 4.11278981478184 5.4557143866511
4 1 3 0 6.45132901971629 5.52986121556877 3.93713920605382
5 2 3 0 13.2542671558633 6.59752338234335 8.597583262017
6 2 4 0 14.2142671558633 6.59752338234335 8.597583262017
7 2 3 0 14.4542671558633 5.66752338234335 8.597583262017
8 3 3 0 3.62475826914422 5.53941761999391 5.71771164424717
9 3 4 0 4.58475826914422 5.53941761999391 5.71771164424717
10 3 3 0 4.82475826914422 4.60941761999391 5.71771164424717
11 4 3 0 5.48642206748016 3.88816599775106 9.56275571021251
12 4 4 0 6.44642206748016 3.88816599775106 9.56275571021251
13 4 3 0 6.68642206748016 2.95816599775106 9.56275571021251
14 5 3 0 3.79935891062021 6.79941445280798 12.7636682766024
15 5 4 0 4.75935891062021 6.79941445280798 12.7636682766024
16 5 3 0 4.99935891062021 5.86941445280798 12.7636682766024
17 6 3 0 7.67460627408698 9.12511474377476 1.73698990372941
18 6 4 0 8.63460627408698 9.12511474377476 1.73698990372941
19 6 3 0 8.87460627408698 8.19511474377476 1.73698990372941
20 7 3 0 7.75920363885351 14.3449368413445 5.97412698087282
21 7 4 0 8.71920363885351 14.3449368413445 5.97412698087282
22 7 3 0 8.95920363885351 13.4149368413445 5.97412698087282
23 8 3 0 9.82585796431638 7.88576530100778 1.86059133033268
24 8 4 0 10.7858579643164 7.88576530100778 1.86059133033268
25 8 3 0 11.0258579643164 6.95576530100778 1.86059133033268
26 9 3 0 2.04869370834902 11.3956080276426 10.9655166591983
27 9 4 0 3.00869370834902 11.3956080276426 10.9655166591983
28 9 3 0 3.24869370834902 10.4656080276426 10.9655166591983
29 10 3 0 11.3604393896833 3.93246091593988 3.05804230389185
30 10 4 0 12.3204393896833 3.93246091593988 3.05804230389185
31 10 3 0 12.5604393896833 3.00246091593988 3.05804230389185
32 11 3 0 6.70348810192198 4.21965134953149 10.0351233535912
33 11 4 0 7.66348810192198 4.21965134953149 10.0351233535912
34 11 3 0 7.90348810192198 3.28965134953149 10.0351233535912
35 12 3 0 10.4141451702174 1.46042338729836 0.656063708011061
36 12 4 0 11.3741451702174 1.46042338729836 0.656063708011061
37 12 3 0 11.6141451702174 0.53042338729836 0.656063708011061
38 13 3 0 -0.629183986019343 8.59278232947923 10.4006549168844
39 13 4 0 0.330816013980657 8.59278232947923 10.4006549168844
40 13 3 0 0.570816013980657 7.66278232947923 10.4006549168844
41 14 3 0 11.6978870441392 12.0540398607869 12.2072970599402
42 14 4 0 12.6578870441392 12.0540398607869 12.2072970599402
43 14 3 0 12.8978870441392 11.1240398607869 12.2072970599402
44 15 3 0 1.10518222834915 0.893408491220325 11.3589357049204
45 15 4 0 2.06518222834915 0.893408491220325 11.3589357049204
46 15 3 0 2.30518222834915 -0.0365915087796748 11.3589357049204
47 16 3 0 1.44746637714095 8.72426508850418 11.8802395043895
48 16 4 0 2.40746637714095 8.72426508850418 11.8802395043895
49 16 3 0 2.64746637714095 7.79426508850418 11.8802395043895
50 17 3 0 4.05491314290091 5.60641731176525 14.4719924626406
51 17 4 0 5.01491314290091 5.60641731176525 14.4719924626406
52 17 3 0 5.25491314290091 4.67641731176525 14.4719924626406
53 18 3 0 10.3783669571578 4.83583036851138 5.32247409923002
54 18 4 0 11.3383669571579 4.83583036851138 5.32247409923002
55 18 3 0 11.5783669571579 3.90583036851138 5.32247409923002
56 19 3 0 7.68970232267864 7.3580362419039 5.16717578284442
57 19 4 0 8.64970232267864 7.3580362419039 5.16717578284442
58 19 3 0 8.88970232267864 6.4280362419039 5.16717578284442
59 20 3 0 -0.088966247420758 11.7823378780764 1.62118306732737
60 20 4 0 0.871033752579242 11.7823378780764 1.62118306732737
61 20 3 0 1.11103375257924 10.8523378780764 1.62118306732737
62 21 3 0 0.386659473152831 6.89767490647733 12.9556316079106
63 21 4 0 1.34665947315283 6.89767490647733 12.9556316079106
64 21 3 0 1.58665947315283 5.96767490647733 12.9556316079106
65 22 3 0 12.3194029605668 9.28958595654927 11.9990366720594
66 22 4 0 13.2794029605668 9.28958595654927 11.9990366720594
67 22 3 0 13.5194029605668 8.35958595654927 11.9990366720594
68 23 3 0 9.29026267069392 8.55790608603507 8.7932511640247
69 23 4 0 10.2502626706939 8.55790608603507 8.7932511640247
70 23 3 0 10.4902626706939 7.62790608603507 8.7932511640247
71 24 3 0 0.929323966121301 14.5216543045267 11.3395776471589
72 24 4 0 1.8893239661213 14.5216543045267 11.3395776471589
73 24 3 0 2.1293239661213 13.5916543045267 11.3395776471589
74 25 3 0 8.86045018371195 3.28610379057005 0.149831101298332
75 25 4 0 9.82045018371195 3.28610379057005 0.149831101298332
76 25 3 0 10.0604501837119 2.35610379057005 0.149831101298332
77 26 3 0 0.452908548032865 3.3365557859093 4.05611798283644
78 26 4 0 1.41290854803286 3.3365557859093 4.05611798283644
79 26 3 0 1.65290854803286 2.40655578590929 4.05611798283644
80 27 3 0 1.06784651798196 6.36083422269672 4.02004440198652
81 27 4 0 2.02784651798196 6.36083422269672 4.02004440198652
82 27 3 0 2.26784651798196 5.43083422269672 4.02004440198652
83 28 3 0 6.29526573509909 0.363120674565434 0.862013442674652
84 28 4 0 7.25526573509909 0.363120674565434 0.862013442674652
85 28 3 0 7.49526573509909 -0.566879325434566 0.862013442674652
86 29 3 0 3.3410452007968 10.3361620024685 9.75579825346358
87 29 4 0 4.3010452007968 10.3361620024685 9.75579825346358
88 29 3 0 4.5410452007968 9.40616200246848 9.75579825346358
89 30 3 0 6.27486349825747 7.23192836431786 13.6933519109152
90 30 4 0 7.23486349825747 7.23192836431786 13.6933519109152
91 30 3 0 7.47486349825747 6.30192836431786 13.6933519109152
92 31 3 0 2.35131001842208 1.07015657628886 2.12090168846771
93 31 4 0 3.31131001842208 1.07015657628886 2.12090168846771
94 31 3 0 3.55131001842208 0.140156576288864 2.12090168846771
95 32 3 0 9.40060677283443 3.7253167984914 5.32860278617591
96 32 4 0 10.3606067728344 3.7253167984914 5.32860278617591
97 32 3 0 10.6006067728344 2.7953167984914 5.32860278617591
98 33 3 0 -0.474337632330134 8.70325507637113 12.5592691486236
99 33 4 0 0.485662367669865 8.70325507637113 12.5592691486236
100 33 3 0 0.725662367669865 7.77325507637113 12.5592691486236
101 34 3 0 4.6111805287376 14.4112447990943 3.82641008938663
102 34 4 0 5.5711805287376 14.4112447990943 3.82641008938663
103 34 3 0 5.81118052873761 13.4812447990943 3.82641008938663
104 35 3 0 -0.0808494743239134 4.72993534215726 6.10858236439526
105 35 4 0 0.879150525676087 4.72993534215726 6.10858236439526
106 35 3 0 1.11915052567609 3.79993534215726 6.10858236439526
107 36 3 0 5.57153804853559 13.3885970960278 13.3302954118699
108 36 4 0 6.53153804853559 13.3885970960278 13.3302954118699
109 36 3 0 6.77153804853559 12.4585970960278 13.3302954118699
110 37 3 0 4.43133152366616 1.51747343171388 10.9000468847807
111 37 4 0 5.39133152366616 1.51747343171388 10.9000468847807
112 37 3 0 5.63133152366616 0.587473431713879 10.9000468847807
113 38 3 0 11.5134933187813 10.3995125418901 1.41697861952707
114 38 4 0 12.4734933187813 10.3995125418901 1.41697861952707
115 38 3 0 12.7134933187813 9.46951254189015 1.41697861952707
116 39 3 0 3.53450468086638 8.92491789692082 0.985604922752827
117 39 4 0 4.49450468086638 8.92491789692082 0.985604922752827
118 39 3 0 4.73450468086638 7.99491789692082 0.985604922752827
119 40 3 0 3.96637690879405 13.0811082040332 14.0601904504001
120 40 4 0 4.92637690879405 13.0811082040332 14.0601904504001
121 40 3 0 5.16637690879405 12.1511082040332 14.0601904504001
122 41 3 0 11.8758632631227 11.8302090400271 7.76173149235547
123 41 4 0 12.8358632631227 11.8302090400271 7.76173149235547
124 41 3 0 13.0758632631227 10.9002090400271 7.76173149235547
125 42 3 0 2.06957491857 1.79128400789574 0.691305231302977
126 42 4 0 3.02957491857 1.79128400789574 0.691305231302977
127 42 3 0 3.26957491857 0.861284007895738 0.691305231302977
128 43 3 0 0.689233052982017 8.43445321469568 9.89389869966544
129 43 4 0 1.64923305298202 8.43445321469568 9.89389869966544
130 43 3 0 1.88923305298202 7.50445321469568 9.89389869966544
131 44 3 0 12.4034168156516 2.2543066813983 10.0300186662935
132 44 4 0 13.3634168156516 2.2543066813983 10.0300186662935
133 44 3 0 13.6034168156516 1.3243066813983 10.0300186662935
134 45 3 0 11.4049915659428 6.92103016114794 0.933879887452349
135 45 4 0 12.3649915659428 6.92103016114794 0.933879887452349
136 45 3 0 12.6049915659428 5.99103016114794 0.933879887452349
137 46 3 0 13.6606557054631 5.30877610127442 2.7980792010203
138 46 4 0 14.6206557054631 5.30877610127442 2.7980792010203
139 46 3 0 14.8606557054631 4.37877610127442 2.7980792010203
140 47 3 0 4.64097874282859 6.40689959441312 4.1805318009574
141 47 4 0 5.60097874282859 6.40689959441312 4.1805318009574
142 47 3 0 5.84097874282859 5.47689959441312 4.1805318009574
143 48 3 0 10.4187232330162 7.69333337940276 1.8673578556627
144 48 4 0 11.3787232330162 7.69333337940276 1.8673578556627
145 48 3 0 11.6187232330162 6.76333337940276 1.8673578556627
146 49 3 0 7.69924087959342 12.568921135217 12.2968448395841
147 49 4 0 8.65924087959342 12.568921135217 12.2968448395841
148 49 3 0 8.89924087959342 11.638921135217 12.2968448395841
149 50 3 0 6.04125259953551 6.04431245749816 1.24877887428738
150 50 4 0 7.00125259953551 6.04431245749816 1.24877887428738
151 50 3 0 7.24125259953551 5.11431245749816 1.24877887428738
152 51 3 0 8.99918781870045 5.06473748985678 3.94475489272736
153 51 4 0 9.95918781870045 5.06473748985678 3.94475489272736
154 51 3 0 10.1991878187004 4.13473748985678 3.94475489272736
155 52 3 0 13.6493992181215 1.39240019180812 5.51130379666574
156 52 4 0 14.6093992181215 1.39240019180812 5.51130379666574
157 52 3 0 14.8493992181215 0.462400191808119 5.51130379666574
158 53 3 0 2.86337332843803 6.31120204384439 4.32854026090354
159 53 4 0 3.82337332843803 6.31120204384439 4.32854026090354
160 53 3 0 4.06337332843803 5.38120204384439 4.32854026090354
161 54 3 0 13.4212311117165 13.7230517230369 11.8943024519831
162 54 4 0 14.3812311117165 13.7230517230369 11.8943024519831
163 54 3 0 14.6212311117165 12.7930517230369 11.8943024519831
164 55 3 0 10.0282484739739 10.518547685761 0.555608725408092
165 55 4 0 10.9882484739739 10.518547685761 0.555608725408092
166 55 3 0 11.2282484739739 9.58854768576101 0.555608725408092
167 56 3 0 11.6594153169729 2.33009166241623 1.25702942255884
168 56 4 0 12.6194153169729 2.33009166241623 1.25702942255884
169 56 3 0 12.8594153169729 1.40009166241623 1.25702942255884
170 57 3 0 1.45897818773054 9.78286395472474 14.7135403286666
171 57 4 0 2.41897818773054 9.78286395472474 14.7135403286666
172 57 3 0 2.65897818773054 8.85286395472474 14.7135403286666
173 58 3 0 9.11530844561756 4.364367254721 1.40245612710714
174 58 4 0 10.0753084456176 4.364367254721 1.40245612710714
175 58 3 0 10.3153084456176 3.434367254721 1.40245612710714
176 59 3 0 10.5990744223539 6.34727167821489 9.41775577724911
177 59 4 0 11.5590744223539 6.34727167821489 9.41775577724911
178 59 3 0 11.7990744223539 5.41727167821489 9.41775577724911
179 60 3 0 13.8000433570426 7.99088194541633 8.44989312929101
180 60 4 0 14.7600433570426 7.99088194541633 8.44989312929101
181 60 3 0 15.0000433570426 7.06088194541633 8.44989312929101
182 61 3 0 4.88997509630397 4.65656571829691 1.81877245777287
183 61 4 0 5.84997509630397 4.65656571829691 1.81877245777287
184 61 3 0 6.08997509630397 3.72656571829692 1.81877245777287
185 62 3 0 5.27430829868652 7.45764963951893 4.91425282205455
186 62 4 0 6.23430829868652 7.45764963951893 4.91425282205455
187 62 3 0 6.47430829868652 6.52764963951893 4.91425282205455
188 63 3 0 9.87243856114335 8.27611749916337 0.727068458218127
189 63 4 0 10.8324385611434 8.27611749916337 0.727068458218127
190 63 3 0 11.0724385611434 7.34611749916337 0.727068458218127
191 64 3 0 0.897932673543692 1.00299816270359 4.47694681934081
192 64 4 0 1.85793267354369 1.00299816270359 4.47694681934081
193 64 3 0 2.09793267354369 0.0729981627035886 4.47694681934081
194 65 3 0 9.9722769814264 2.66934453783557 11.2515950587112
195 65 4 0 10.9322769814264 2.66934453783557 11.2515950587112
196 65 3 0 11.1722769814264 1.73934453783557 11.2515950587112
197 66 3 0 11.3646734696534 8.78086640424095 12.7730792714283
198 66 4 0 12.3246734696534 8.78086640424095 12.7730792714283
199 66 3 0 12.5646734696534 7.85086640424095 12.7730792714283
200 67 3 0 9.12754801844247 15.1859909020737 12.8376921953168
201 67 4 0 10.0875480184425 15.1859909020737 12.8376921953168
202 67 3 0 10.3275480184425 14.2559909020737 12.8376921953168
203 68 3 0 8.08095643457025 15.195696094716 13.0581226036884
204 68 4 0 9.04095643457025 15.195696094716 13.0581226036884
205 68 3 0 9.28095643457025 14.265696094716 13.0581226036884
206 69 3 0 6.89258364189416 2.62495484826155 5.06052630138583
207 69 4 0 7.85258364189416 2.62495484826155 5.06052630138583
208 69 3 0 8.09258364189416 1.69495484826155 5.06052630138583
209 70 3 0 -0.25582035144791 7.65379995847121 1.02878371020779
210 70 4 0 0.70417964855209 7.65379995847121 1.02878371020779
211 70 3 0 0.94417964855209 6.72379995847121 1.02878371020779
212 71 3 0 10.2313174882159 0.661663145702332 3.3808337780647
213 71 4 0 11.1913174882159 0.661663145702332 3.3808337780647
214 71 3 0 11.4313174882159 -0.268336854297668 3.3808337780647
215 72 3 0 7.83535240494646 11.9114084545895 7.63104383018799
216 72 4 0 8.79535240494646 11.9114084545895 7.63104383018799
217 72 3 0 9.03535240494646 10.9814084545895 7.63104383018799
218 73 3 0 6.9364310642425 2.06072439596988 6.31949038943276
219 73 4 0 7.8964310642425 2.06072439596988 6.31949038943276
220 73 3 0 8.1364310642425 1.13072439596988 6.31949038943276
221 74 3 0 13.6442104044557 1.95332499261945 12.813500437187
222 74 4 0 14.6042104044557 1.95332499261945 12.813500437187
223 74 3 0 14.8442104044557 1.02332499261945 12.813500437187
224 75 3 0 0.420281700063497 10.9973401801568 13.0158289836254
225 75 4 0 1.3802817000635 10.9973401801568 13.0158289836254
226 75 3 0 1.6202817000635 10.0673401801568 13.0158289836254
227 76 3 0 10.8698911154363 1.65650620399043 12.7403302153107
228 76 4 0 11.8298911154363 1.65650620399043 12.7403302153107
229 76 3 0 12.0698911154363 0.72650620399043 12.7403302153107
230 77 3 0 12.4774142545369 11.2986480576824 10.5270108114928
231 77 4 0 13.4374142545369 11.2986480576824 10.5270108114928
232 77 3 0 13.6774142545369 10.3686480576824 10.5270108114928
233 78 3 0 0.458639981662855 14.9890198760573 7.06058379029855
234 78 4 0 1.41863998166285 14.9890198760573 7.06058379029855
235 78 3 0 1.65863998166285 14.0590198760573 7.06058379029855
236 79 3 0 3.21412955920212 11.1563712094817 0.853035530308262
237 79 4 0 4.17412955920212 11.1563712094817 0.853035530308262
238 79 3 0 4.41412955920212 10.2263712094817 0.853035530308262
239 80 3 0 8.45686968692578 6.5747102412302 5.84027921548113
240 80 4 0 9.41686968692578 6.5747102412302 5.84027921548113
241 80 3 0 9.65686968692578 5.6447102412302 5.84027921548113
242 81 3 0 12.5896869697329 11.324863535529 13.0889291502535
243 81 4 0 13.5496869697329 11.324863535529 13.0889291502535
244 81 3 0 13.7896869697329 10.394863535529 13.0889291502535
245 82 3 0 2.34872162385844 13.8336961802002 0.141679847147316
246 82 4 0 3.30872162385844 13.8336961802002 0.141679847147316
247 82 3 0 3.54872162385844 12.9036961802002 0.141679847147316
248 83 3 0 8.39225348012522 6.78754705045372 11.4742497447878
249 83 4 0 9.35225348012522 6.78754705045372 11.4742497447878
250 83 3 0 9.59225348012522 5.85754705045372 11.4742497447878
251 84 3 0 6.22022931740619 2.18537463963963 0.0403369765263051
252 84 4 0 7.18022931740619 2.18537463963963 0.0403369765263051
253 84 3 0 7.42022931740619 1.25537463963963 0.0403369765263051
254 85 3 0 8.23400427631102 12.3467002650164 10.5823162570596
255 85 4 0 9.19400427631103 12.3467002650164 10.5823162570596
256 85 3 0 9.43400427631103 11.4167002650164 10.5823162570596
257 86 3 0 3.66085173605941 1.84680832590908 12.0757617847994
258 86 4 0 4.62085173605941 1.84680832590908 12.0757617847994
259 86 3 0 4.86085173605941 0.916808325909078 12.0757617847994
260 87 3 0 0.230117851607502 11.3688123230264 4.74949658615515
261 87 4 0 1.1901178516075 11.3688123230264 4.74949658615515
262 87 3 0 1.4301178516075 10.4388123230264 4.74949658615515
263 88 3 0 8.10515859673731 5.30503698316403 6.4671267173253
264 88 4 0 9.06515859673731 5.30503698316403 6.4671267173253
265 88 3 0 9.30515859673731 4.37503698316403 6.4671267173253
266 89 3 0 8.47271696358919 9.32927084196359 4.67952319071628
267 89 4 0 9.43271696358919 9.32927084196359 4.67952319071628
268 89 3 0 9.67271696358919 8.39927084196359 4.67952319071628
269 90 3 0 13.7815562698245 4.17231751646846 11.2067410361487
270 90 4 0 14.7415562698245 4.17231751646846 11.2067410361487
271 90 3 0 14.9815562698245 3.24231751646847 11.2067410361487
272 91 3 0 13.4995169033948 3.33188644767739 8.81833379971795
273 91 4 0 14.4595169033948 3.33188644767739 8.81833379971795
274 91 3 0 14.6995169033948 2.40188644767739 8.81833379971795
275 92 3 0 13.8352326331381 13.4483542297408 9.75945116369985
276 92 4 0 14.7952326331381 13.4483542297408 9.75945116369985
277 92 3 0 15.0352326331381 12.5183542297408 9.75945116369985
278 93 3 0 12.5437918973342 4.52522267512046 0.440883818082511
279 93 4 0 13.5037918973342 4.52522267512046 0.440883818082511
280 93 3 0 13.7437918973342 3.59522267512046 0.440883818082511
281 94 3 0 12.4851337673329 1.07953088981099 11.4349824737292
282 94 4 0 13.4451337673329 1.07953088981099 11.4349824737292
283 94 3 0 13.6851337673329 0.149530889810994 11.4349824737292
284 95 3 0 4.95608160548843 9.78790738428012 7.27635380811989
285 95 4 0 5.91608160548843 9.78790738428012 7.27635380811989
286 95 3 0 6.15608160548843 8.85790738428012 7.27635380811989
287 96 3 0 -0.108854062417522 2.43871448486112 9.79339944664389
288 96 4 0 0.851145937582478 2.43871448486112 9.79339944664389
289 96 3 0 1.09114593758248 1.50871448486112 9.79339944664389
290 97 3 0 10.1474874796998 5.90257333632559 6.85867040650919
291 97 4 0 11.1074874796998 5.90257333632559 6.85867040650919
292 97 3 0 11.3474874796998 4.97257333632559 6.85867040650919
293 98 3 0 3.27636250804178 8.12541096745059 10.3764663997572
294 98 4 0 4.23636250804178 8.12541096745059 10.3764663997572
295 98 3 0 4.47636250804178 7.19541096745059 10.3764663997572
296 99 3 0 6.19646876279265 14.0068483834062 8.29150417819619
297 99 4 0 7.15646876279265 14.0068483834062 8.29150417819619
298 99 3 0 7.39646876279265 13.0768483834062 8.29150417819619
299 100 3 0 1.88139975347556 11.6354473789129 14.0462677634787
300 100 4 0 2.84139975347556 11.6354473789129 14.0462677634787
301 100 3 0 3.08139975347556 10.7054473789129 14.0462677634787
302 101 3 0 10.6591773794219 2.23353867227212 8.0301642534323
303 101 4 0 11.6191773794219 2.23353867227212 8.0301642534323
304 101 3 0 11.8591773794219 1.30353867227212 8.0301642534323
305 102 3 0 7.79742641301826 10.9104488701001 6.56538043054752
306 102 4 0 8.75742641301826 10.9104488701001 6.56538043054752
307 102 3 0 8.99742641301826 9.98044887010008 6.56538043054752
308 103 3 0 3.73327581139281 12.0130372668523 10.776807818329
309 103 4 0 4.69327581139281 12.0130372668523 10.776807818329
310 103 3 0 4.93327581139281 11.0830372668523 10.776807818329
311 104 3 0 1.08009128060192 7.287175520733 5.09108686703257
312 104 4 0 2.04009128060192 7.287175520733 5.09108686703257
313 104 3 0 2.28009128060192 6.357175520733 5.09108686703257
314 105 3 0 4.9053554939758 10.4152911882289 14.5329296740238
315 105 4 0 5.8653554939758 10.4152911882289 14.5329296740238
316 105 3 0 6.1053554939758 9.48529118822888 14.5329296740238
317 106 3 0 9.70534776264802 15.1482941831369 11.0570565867238
318 106 4 0 10.665347762648 15.1482941831369 11.0570565867238
319 106 3 0 10.905347762648 14.2182941831369 11.0570565867238
320 107 3 0 1.08432165856473 4.56974854966626 5.74716104543768
321 107 4 0 2.04432165856473 4.56974854966626 5.74716104543768
322 107 3 0 2.28432165856473 3.63974854966626 5.74716104543768
323 108 3 0 1.57901658953168 2.95545711455867 2.1796147339046
324 108 4 0 2.53901658953168 2.95545711455867 2.1796147339046
325 108 3 0 2.77901658953168 2.02545711455867 2.1796147339046
326 109 3 0 12.9555769816227 14.1191348065063 12.3645627277438
327 109 4 0 13.9155769816227 14.1191348065063 12.3645627277438
328 109 3 0 14.1555769816227 13.1891348065063 12.3645627277438
329 110 3 0 11.293656408526 13.3782504537981 4.77548768743873
330 110 4 0 12.253656408526 13.3782504537981 4.77548768743873
331 110 3 0 12.493656408526 12.4482504537981 4.77548768743873
332 111 3 0 12.3813277557213 2.76087722898461 11.0410390980542
333 111 4 0 13.3413277557213 2.76087722898461 11.0410390980542
334 111 3 0 13.5813277557213 1.83087722898461 11.0410390980542
335 112 3 0 -0.301586737185717 5.33928062342107 5.68595367134549
336 112 4 0 0.658413262814283 5.33928062342107 5.68595367134549
337 112 3 0 0.898413262814283 4.40928062342107 5.68595367134549
338 113 3 0 4.09829607859254 7.96495572704822 0.862626442685723
339 113 4 0 5.05829607859254 7.96495572704822 0.862626442685723
340 113 3 0 5.29829607859254 7.03495572704822 0.862626442685723
341 114 3 0 2.61857438759878 8.12641838490032 1.28349340637214
342 114 4 0 3.57857438759878 8.12641838490032 1.28349340637214
343 114 3 0 3.81857438759878 7.19641838490032 1.28349340637214
344 115 3 0 -0.304320868598297 0.627365913651884 0.0194858328904957
345 115 4 0 0.655679131401703 0.627365913651884 0.0194858328904957
346 115 3 0 0.895679131401703 -0.302634086348116 0.0194858328904957
347 116 3 0 2.73003733760677 1.15771332913078 4.85027786926366
348 116 4 0 3.69003733760677 1.15771332913078 4.85027786926366
349 116 3 0 3.93003733760677 0.227713329130784 4.85027786926366
350 117 3 0 6.32087297664955 10.416973296497 11.3365124270786
351 117 4 0 7.28087297664955 10.416973296497 11.3365124270786
352 117 3 0 7.52087297664955 9.48697329649702 11.3365124270786
353 118 3 0 8.13420334758237 13.5949627896212 11.9381718768273
354 118 4 0 9.09420334758237 13.5949627896212 11.9381718768273
355 118 3 0 9.33420334758237 12.6649627896212 11.9381718768273
356 119 3 0 1.11509846683592 11.7253541065753 12.474243681645
357 119 4 0 2.07509846683592 11.7253541065753 12.474243681645
358 119 3 0 2.31509846683592 10.7953541065753 12.474243681645
359 120 3 0 11.1855883632973 1.61251115537249 10.0651572074275
360 120 4 0 12.1455883632973 1.61251115537249 10.0651572074275
361 120 3 0 12.3855883632973 0.682511155372485 10.0651572074275
362 121 3 0 -0.102664920995012 12.9441034611687 4.83309192932211
363 121 4 0 0.857335079004988 12.9441034611687 4.83309192932211
364 121 3 0 1.09733507900499 12.0141034611687 4.83309192932211
365 122 3 0 10.9560772629641 11.4649859796651 13.792992644012
366 122 4 0 11.9160772629641 11.4649859796651 13.792992644012
367 122 3 0 12.1560772629641 10.5349859796651 13.792992644012
368 123 3 0 14.1082272031065 11.0555136126373 0.485115030314773
369 123 4 0 15.0682272031065 11.0555136126373 0.485115030314773
370 123 3 0 15.3082272031065 10.1255136126373 0.485115030314773
371 124 3 0 -0.122575946878642 2.69990977639332 12.3920038773213
372 124 4 0 0.837424053121358 2.69990977639332 12.3920038773213
373 124 3 0 1.07742405312136 1.76990977639332 12.3920038773213
374 125 3 0 3.93515094925649 11.7290555934329 12.1398166834842
375 125 4 0 4.89515094925649 11.7290555934329 12.1398166834842
376 125 3 0 5.1351509492565 10.7990555934329 12.1398166834842
377 126 3 0 0.791436381842941 13.1571004485618 8.93245436483994
378 126 4 0 1.75143638184294 13.1571004485618 8.93245436483994
379 126 3 0 1.99143638184294 12.2271004485618 8.93245436483994
380 127 3 0 1.89239670566283 7.59855080436915 3.368565706769
381 127 4 0 2.85239670566283 7.59855080436915 3.368565706769
382 127 3 0 3.09239670566283 6.66855080436915 3.368565706769
383 128 3 0 6.39408356088214 1.61711393430829 14.6350743400399
384 128 4 0 7.35408356088214 1.61711393430829 14.6350743400399
385 128 3 0 7.59408356088214 0.68711393430829 14.6350743400399
386 129 3 0 8.98607117749751 8.87641919584945 10.2461164235137
387 129 4 0 9.94607117749751 8.87641919584945 10.2461164235137
388 129 3 0 10.1860711774975 7.94641919584945 10.2461164235137
389 130 3 0 3.89359640699811 1.48388402344659 6.38470121892169
390 130 4 0 4.85359640699811 1.48388402344659 6.38470121892169
391 130 3 0 5.09359640699811 0.55388402344659 6.38470121892169
392 131 3 0 7.42152000588365 1.47517694783397 8.749875202775
393 131 4 0 8.38152000588365 1.47517694783397 8.749875202775
394 131 3 0 8.62152000588365 0.54517694783397 8.749875202775
395 132 3 0 8.71816533777863 9.72837032092735 12.5649723981041
396 132 4 0 9.67816533777863 9.72837032092735 12.5649723981041
397 132 3 0 9.91816533777863 8.79837032092735 12.5649723981041
398 133 3 0 1.03052530830726 3.98340153781697 4.95134883443825
399 133 4 0 1.99052530830726 3.98340153781697 4.95134883443825
400 133 3 0 2.23052530830726 3.05340153781697 4.95134883443825
401 134 3 0 6.89693199165165 4.56839425413869 9.33413178194314
402 134 4 0 7.85693199165165 4.56839425413869 9.33413178194314
403 134 3 0 8.09693199165165 3.63839425413869 9.33413178194314
404 135 3 0 3.40238760036416 10.3623998320568 9.48761898558587
405 135 4 0 4.36238760036416 10.3623998320568 9.48761898558587
406 135 3 0 4.60238760036416 9.43239983205684 9.48761898558587
407 136 3 0 6.98127447322011 14.8345002489537 9.32098875520751
408 136 4 0 7.94127447322011 14.8345002489537 9.32098875520751
409 136 3 0 8.18127447322011 13.9045002489537 9.32098875520751
410 137 3 0 10.9798252621852 2.60464918840677 1.62006542086601
411 137 4 0 11.9398252621852 2.60464918840677 1.62006542086601
412 137 3 0 12.1798252621852 1.67464918840677 1.62006542086601
413 138 3 0 8.87668816882186 13.7654091014434 2.17916067223996
414 138 4 0 9.83668816882186 13.7654091014434 2.17916067223996
415 138 3 0 10.0766881688219 12.8354091014434 2.17916067223996
416 139 3 0 3.18678403666243 3.76702497055754 4.96340477024205
417 139 4 0 4.14678403666243 3.76702497055754 4.96340477024205
418 139 3 0 4.38678403666243 2.83702497055754 4.96340477024205
419 140 3 0 3.64102963867597 1.84924659709446 11.1739158513956
420 140 4 0 4.60102963867597 1.84924659709446 11.1739158513956
421 140 3 0 4.84102963867597 0.919246597094461 11.1739158513956
422 141 3 0 0.00442227043211463 11.4083946244232 3.49347153911367
423 141 4 0 0.964422270432115 11.4083946244232 3.49347153911367
424 141 3 0 1.20442227043211 10.4783946244232 3.49347153911367
425 142 3 0 7.18407234337181 9.19174782856368 13.8031380542088
426 142 4 0 8.14407234337181 9.19174782856368 13.8031380542088
427 142 3 0 8.38407234337181 8.26174782856368 13.8031380542088
428 143 3 0 -0.0725196227710694 6.27066188649274 9.65492465416901
429 143 4 0 0.887480377228931 6.27066188649274 9.65492465416901
430 143 3 0 1.12748037722893 5.34066188649274 9.65492465416901
431 144 3 0 13.9717583746836 10.8993125163857 4.8639135772828
432 144 4 0 14.9317583746836 10.8993125163857 4.8639135772828
433 144 3 0 15.1717583746836 9.96931251638569 4.8639135772828
434 145 3 0 6.47295523012988 0.610559282768518 9.23701164429076
435 145 4 0 7.43295523012988 0.610559282768518 9.23701164429076
436 145 3 0 7.67295523012988 -0.319440717231482 9.23701164429076
437 146 3 0 11.2725295980647 2.15849701239727 6.84403839753941
438 146 4 0 12.2325295980647 2.15849701239727 6.84403839753941
439 146 3 0 12.4725295980647 1.22849701239727 6.84403839753941
440 147 3 0 5.51739997507073 5.30418135150336 9.31059739203192
441 147 4 0 6.47739997507073 5.30418135150336 9.31059739203192
442 147 3 0 6.71739997507073 4.37418135150336 9.31059739203192
443 148 3 0 4.50332775522955 14.7586004707869 13.3146425255109
444 148 4 0 5.46332775522955 14.7586004707869 13.3146425255109
445 148 3 0 5.70332775522955 13.8286004707869 13.3146425255109
446 149 3 0 11.6220086642727 8.56732740107924 2.30598475201987
447 149 4 0 12.5820086642727 8.56732740107924 2.30598475201987
448 149 3 0 12.8220086642727 7.63732740107924 2.30598475201987
449 150 3 0 9.48596378250048 5.26373638812453 11.309623819543
450 150 4 0 10.4459637825005 5.26373638812453 11.309623819543
451 150 3 0 10.6859637825005 4.33373638812453 11.309623819543
452 151 3 0 13.7053788236529 13.0236003121268 2.73477014503442
453 151 4 0 14.6653788236529 13.0236003121268 2.73477014503442
454 151 3 0 14.9053788236529 12.0936003121268 2.73477014503442
455 152 3 0 5.33056929169223 5.74648291612044 1.14910399541259
456 152 4 0 6.29056929169223 5.74648291612044 1.14910399541259
457 152 3 0 6.53056929169223 4.81648291612044 1.14910399541259
458 153 3 0 10.7747036700323 15.0748146655411 11.3085064629558
459 153 4 0 11.7347036700323 15.0748146655411 11.3085064629558
460 153 3 0 11.9747036700323 14.1448146655411 11.3085064629558
461 154 3 0 4.68626638918184 8.96172852645628 1.00150353857316
462 154 4 0 5.64626638918184 8.96172852645628 1.00150353857316
463 154 3 0 5.88626638918184 8.03172852645628 1.00150353857316
464 155 3 0 11.8912063229084 9.24881230731495 3.34470987087116
465 155 4 0 12.8512063229084 9.24881230731495 3.34470987087116
466 155 3 0 13.0912063229084 8.31881230731495 3.34470987087116
467 156 3 0 1.18505998791195 6.28265322576277 0.196421490982175
468 156 4 0 2.14505998791195 6.28265322576277 0.196421490982175
469 156 3 0 2.38505998791195 5.35265322576277 0.196421490982175
470 157 3 0 12.9667644474842 2.44189834030345 5.24666483514011
471 157 4 0 13.9267644474842 2.44189834030345 5.24666483514011
472 157 3 0 14.1667644474842 1.51189834030345 5.24666483514011
473 158 3 0 4.82929978796281 13.1078370524943 13.2754993869457
474 158 4 0 5.78929978796281 13.1078370524943 13.2754993869457
475 158 3 0 6.02929978796281 12.1778370524943 13.2754993869457