LAMMPS (29 Sep 2021 - Update 1)
# Test LAMMPS input file for single DeFDe

# Initialize simulation

clear

units real
atom_style full
boundary p p p
dielectric 1
special_bonds dreiding

bond_style harmonic
angle_style harmonic
dihedral_style harmonic
improper_style umbrella
pair_style hybrid/overlay hbond/dreiding/lj 4 9.0 11.0 90 lj/cut 8.50000

# Read data file
read_data frag5.dat
Reading data file ...
  triclinic box = (0.0000000 0.0000000 0.0000000) to (15.000000 15.000000 15.000000) with tilt (0.0000000 0.0000000 0.0000000)
  2 by 4 by 4 MPI processor grid
  reading atoms ...
  1504 atoms
  scanning bonds ...
  2 = max bonds/atom
  scanning angles ...
  3 = max angles/atom
  scanning impropers ...
  1 = max impropers/atom
  reading bonds ...
  1003 bonds
  reading angles ...
  503 angles
  reading impropers ...
  1 impropers
Finding 1-2 1-3 1-4 neighbors ...
  special bond factors lj:    0        0        1       
  special bond factors coul:  0        0        1       
     3 = max # of 1-2 neighbors
     2 = max # of 1-3 neighbors
     3 = max # of special neighbors
  special bonds CPU = 0.002 seconds
  read_data CPU = 0.016 seconds

# Dreiding potential information

bond_coeff 1 700 1.165
bond_coeff 2 350 0.935
bond_coeff 3 350 0.98

angle_coeff 1 50 120
angle_coeff 2 50 104.51


improper_coeff 1 40 0

pair_coeff 1 1 lj/cut 0.0957 3.4046
pair_coeff 1 2 lj/cut 0.0860649754545948 3.53100349192691
pair_coeff 1 3 lj/cut 0.0030935416596516 3.29710294046152
pair_coeff 1 4 lj/cut 0.0957 3.4046
pair_coeff 2 2 lj/cut 0.0774 3.6621
pair_coeff 2 3 lj/cut 0.00278208554864871 3.41951536039831
pair_coeff 2 4 lj/cut 0.0860649754545948 3.53100349192691
pair_coeff 3 3 lj/cut 1e-04 3.193
pair_coeff 3 4 lj/cut 0.0030935416596516 3.29710294046152
pair_coeff 4 4 lj/cut 0.0957 3.4046
pair_coeff 1 2 hbond/dreiding/lj 3 j 9.50 2.75 4 9.0 11.0 90
pair_coeff 2 2 hbond/dreiding/lj 3 j 9.50 2.75 4 9.0 11.0 90
pair_coeff 2 4 hbond/dreiding/lj 3 i 9.50 2.75 4 9.0 11.0 90
pair_coeff 1 4 hbond/dreiding/lj 3 j 9.50 2.75 4 9.0 11.0 90
pair_coeff 2 4 hbond/dreiding/lj 3 j 9.50 2.75 4 9.0 11.0 90
pair_coeff 4 4 hbond/dreiding/lj 3 j 9.50 2.75 4 9.0 11.0 90

neighbor 2 bin
neigh_modify every 2 one 10000

# Gemoetric relaxation
fix 1 all box/relax iso 1.0 vmax 0.001
minimize 1.0e-4 1.0e-6 10000 10000
WARNING: Using 'neigh_modify every 1 delay 0 check yes' setting during minimization (../min.cpp:188)
Neighbor list info ...
  update every 1 steps, delay 0 steps, check yes
  max neighbors/atom: 10000, page size: 100000
  master list distance cutoff = 13
  ghost atom cutoff = 13
  binsize = 6.5, bins = 3 3 3
  3 neighbor lists, perpetual/occasional/extra = 3 0 0
  (1) pair hbond/dreiding/lj, perpetual, skip from (3)
      attributes: full, newton on
      pair build: skip
      stencil: none
      bin: none
  (2) pair lj/cut, perpetual, half/full from (3)
      attributes: half, newton on
      pair build: halffull/newton
      stencil: none
      bin: none
  (3) neighbor class addition, perpetual
      attributes: full, newton on
      pair build: full/bin
      stencil: full/bin/3d
      bin: standard
Per MPI rank memory allocation (min/avg/max) = 10.22 | 10.58 | 11.26 Mbytes
Step Temp E_pair E_mol TotEng Press Volume 
       0            0 1.2107732e+17     204.8057 1.2107732e+17 9.8395022e+18         3375 
    5073            0   -1017.4488    18.391409   -999.05742    80.555457    38174.007 
Loop time of 4.77687 on 32 procs for 5073 steps with 1504 atoms

100.0% CPU use with 32 MPI tasks x no OpenMP threads

Minimization stats:
  Stopping criterion = energy tolerance
  Energy initial, next-to-last, final = 
    1.21077320616467e+17   -998.46758164775  -998.549912130753
  Force two-norm initial, final = 2.3764852e+19 95.021054
  Force max component initial, final = 1.4969890e+19 59.192981
  Final line search alpha, max atom move = 1.1747644e-05 0.00069537805
  Iterations, force evaluations = 5073 5076

MPI task timing breakdown:
Section |  min time  |  avg time  |  max time  |%varavg| %total
---------------------------------------------------------------
Pair    | 1.5652     | 2.4733     | 4.0661     |  33.8 | 51.78
Bond    | 0.0076931  | 0.010259   | 0.015823   |   1.8 |  0.21
Neigh   | 0.10471    | 0.1049     | 0.10507    |   0.0 |  2.20
Comm    | 0.26343    | 1.8564     | 2.7675     |  39.0 | 38.86
Output  | 0          | 0          | 0          |   0.0 |  0.00
Modify  | 0          | 0          | 0          |   0.0 |  0.00
Other   |            | 0.332      |            |       |  6.95

Nlocal:        47.0000 ave          74 max          36 min
Histogram: 5 6 9 7 1 1 1 0 0 2
Nghost:        1922.84 ave        1958 max        1879 min
Histogram: 1 1 2 4 4 8 1 5 4 2
Neighs:        4834.31 ave        8010 max        3010 min
Histogram: 2 2 11 6 5 3 1 0 0 2

Total # of neighbors = 154698
Ave neighs/atom = 102.85771
Ave special neighs/atom = 2.0026596
Neighbor list builds = 92
Dangerous builds = 0

# MD simulation
velocity all create 300.0 12345 rot yes dist gaussian
timestep 1.0
fix 2 all nvt temp 300.0 300.0 1

# Compute interaction energy
group WAT molecule <> 2 501
1500 atoms in group WAT
group MOL molecule 1
4 atoms in group MOL

compute w WAT group/group MOL pair yes
fix 3 all ave/time 10 5 100 c_w file outa

# Outputs
thermo 100 # Output thermodynamic data every nth step
#dump mf1 all xyz 10000 mol_*.xyz

# Run
run 1000000
Neighbor list info ...
  update every 2 steps, delay 10 steps, check yes
  max neighbors/atom: 10000, page size: 100000
  master list distance cutoff = 13
  ghost atom cutoff = 13
  binsize = 6.5, bins = 6 6 6
  4 neighbor lists, perpetual/occasional/extra = 3 1 0
  (1) pair hbond/dreiding/lj, perpetual, skip from (4)
      attributes: full, newton on
      pair build: skip
      stencil: none
      bin: none
  (2) pair lj/cut, perpetual, half/full from (4)
      attributes: half, newton on
      pair build: halffull/newton
      stencil: none
      bin: none
  (3) compute group/group, occasional, copy from (2)
      attributes: half, newton on
      pair build: copy
      stencil: none
      bin: none
  (4) neighbor class addition, perpetual
      attributes: full, newton on
      pair build: full/bin
      stencil: full/bin/3d
      bin: standard
Per MPI rank memory allocation (min/avg/max) = 9.070 | 9.095 | 9.425 Mbytes
Step Temp E_pair E_mol TotEng Press Volume 
    5073          300   -1017.4488    18.391409    344.98983    1690.0134    38174.007 
    5100    323.75722    -1024.146    256.31262    682.64998    929.95278    38174.007 
    5200     297.5908   -1055.2666     210.1096    488.09664   -649.02023    38174.007 
    5300    290.32379   -1063.3471    130.81553     368.1647    280.07501    38174.007 
    5400    307.82906   -1110.0391    179.10238    448.18599    273.30237    38174.007 
    5500    301.09932    -1100.373    186.77933    435.37873    405.42175    38174.007 
    5600    300.89484   -1116.6535    177.64976    409.05257    866.40754    38174.007 
    5700    302.46515   -1085.1403    167.56063    437.51179    1277.3963    38174.007 
    5800    298.33714    -1084.618    172.02309    424.00246     1050.151    38174.007 
    5900    309.71464   -1121.5786    174.00432    439.99607    646.91787    38174.007 
    6000     301.9373   -1114.1186    172.67171    411.27971    539.06417    38174.007 
    6100    308.87338   -1129.9868    184.82146    438.63606    400.32709    38174.007 
    6200    300.84531   -1080.5267    194.21437      461.522     359.1063    38174.007 
    6300    294.54643   -1089.5056    190.14377    420.25251     381.8425    38174.007 
    6400    294.98822   -1111.9863    186.24165    395.84908   -24.455228    38174.007 
    6500    292.45785   -1098.9904    188.78336    400.05018    223.04902    38174.007 
    6600    302.93163   -1134.8297    194.94997    417.30162    194.86688    38174.007 
    6700    309.15142   -1089.4007    191.74454    487.39092    451.67873    38174.007 
    6800    292.21976   -1150.2283    202.68294    361.64517     158.6583    38174.007 
    6900     299.3447   -1129.2171    194.94816    406.84251    498.24279    38174.007 
    7000    295.79802   -1118.4697    193.69605    400.44806   -121.95016    38174.007 
    7100    308.95936   -1116.7276    192.69762    460.15658    290.48972    38174.007 
    7200    304.57548   -1122.3989    191.34617    433.49333    370.14828    38174.007 
    7300    298.48569   -1161.2877    199.64746    375.62265    189.00297    38174.007 
    7400    302.79368   -1149.9951    194.29385     400.8621     341.3562    38174.007 
    7500    302.54396   -1165.8465    201.53421     391.1323    443.13994    38174.007 
    7600    295.05623    -1140.397     184.9487    366.45002    515.98895    38174.007 
    7700    292.39425   -1175.8148    191.91773    326.07523    385.87442    38174.007 
    7800    297.30762   -1135.6509    204.49508    400.82911    45.988301    38174.007 
    7900    300.03537   -1073.3536    199.06594    469.91807    287.74654    38174.007 
    8000    307.61747    -1077.637    208.75137    509.28909    632.94451    38174.007 
    8100    289.63984   -1052.3571    204.09807     449.3731    228.79514    38174.007 
    8200    296.49701   -1088.7382    201.86498    441.48005    655.43335    38174.007 
    8300    305.69066   -1076.7148     203.5845    496.41197     176.0174    38174.007 
    8400    306.54027   -1097.7273    214.62762    490.24902    146.77603    38174.007 
    8500    294.52615   -1110.2429    208.07824    417.35885   -230.29205    38174.007 
    8600    300.16951   -1108.5281    203.48857    439.76717   -462.60133    38174.007 
    8700    286.78917   -1139.1083    208.52737     354.2797    -187.3792    38174.007 
    8800     302.6228   -1161.9552    220.49476    414.33741    14.097058    38174.007 
    8900    290.96088   -1124.4914    221.78036    400.83951    360.70174    38174.007 
    9000    299.36977   -1125.1182    196.06863    412.17416    182.25377    38174.007 
    9100    307.17528   -1135.6828    226.23687    466.74776    637.44537    38174.007 
    9200    294.09228    -1126.161    218.94482    410.36359    328.28433    38174.007 
    9300    300.08429   -1129.0991    220.50761    435.83334    276.91282    38174.007 
    9400    300.65159   -1127.8324    210.33933    429.47343    182.73888    38174.007 
    9500    312.62801   -1104.5843    223.47242    519.51084    634.85277    38174.007 
    9600    302.95871   -1110.0148    227.79771    475.08563    1006.0118    38174.007 
    9700    292.13071    -1144.542    217.78943    382.03904    453.24651    38174.007 
    9800    309.13658     -1098.83    234.33306     520.4836    973.77263    38174.007 
    9900    290.99489   -1126.8211    226.23183    403.11367    854.78009    38174.007 
   10000    306.83867    -1150.228    224.03461    448.49211     593.2029    38174.007 
   10100    295.53068   -1178.3056    231.12323     376.8416    513.06461    38174.007 
   10200    300.07509    -1154.277    239.41848    429.52515    808.01723    38174.007 
   10300     303.5248   -1118.4362    234.98172    476.38448    603.41359    38174.007 
   10400    298.10573   -1149.8134    215.57232    401.31959    405.65764    38174.007 
   10500    312.49372   -1164.8988    235.51075    470.63302    47.621075    38174.007 
   10600    294.29184   -1193.7284    227.53447    352.27986   -107.89884    38174.007 
   10700    304.51519   -1182.8373      232.692    414.13075    538.51347    38174.007 
   10800    305.15662   -1181.3802    234.27521    420.04469    498.57077    38174.007 
   10900    306.29566   -1190.4977    223.05303    404.80808    378.58204    38174.007 
   11000    308.25699   -1164.0773    226.34544    443.30801    16.642704    38174.007 
   11100    307.30669   -1152.0065    248.98692    473.76275    490.27996    38174.007 
   11200    298.91262   -1129.9282    231.57337    440.82074   -119.67225    38174.007 
   11300    308.20711   -1162.8156    228.90281    446.90357     43.82514    38174.007 
   11400    305.54042   -1132.7745    240.85202    476.94673    426.66857    38174.007 
   11500    302.48313   -1097.6436    256.01216    513.54061    135.28432    38174.007 
   11600    299.83543   -1088.7457    246.94305    501.50731    36.198745    38174.007 
   11700    303.52977   -1104.3313    243.33382    498.86374    136.03244    38174.007 
   11800    301.88406   -1109.3629    238.87007     481.9953   -196.01388    38174.007 
   11900    300.11086   -1112.5289    266.30051    498.31551   -179.10259    38174.007 
   12000    290.88318   -1192.2597    244.64412    355.58688    438.71937    38174.007 
   12100    305.20287   -1209.0583    251.71592    410.01457    98.184939    38174.007 
   12200    291.11971   -1160.9882    239.25631    382.53028   -263.13353    38174.007 
   12300    295.73705   -1157.1897    251.94128    419.70018    -266.4136    38174.007 
   12400    305.19378   -1130.5913    247.61509    484.34004    576.54824    38174.007 
   12500    301.82609   -1139.4506    242.52467    455.30248     165.6815    38174.007 
   12600    309.60562   -1162.3284    252.92698    477.68053    134.71281    38174.007 
   12700    268.95802   -1163.2203    263.51335    305.26734   -148.12623    38174.007 
   12800    295.59292   -1153.4907    231.72228    402.53443     686.8685    38174.007 
   12900    310.86363   -1155.1636    278.76724    516.32167    199.04318    38174.007 
   13000    295.37828   -1165.5907    257.76892    415.51943    508.55811    38174.007 
   13100    293.08812   -1189.0218    252.16291    376.22201     777.3356    38174.007 
   13200    303.28979   -1187.9137    269.73435    440.60671    563.64248    38174.007 
   13300    294.38283   -1185.1267    272.32829    406.08305    691.20159    38174.007 
   13400    289.89998   -1159.5477    270.05648     409.3063    467.06528    38174.007 
   13500    305.29925   -1161.1014    248.17175    454.85909    12.769994    38174.007 
   13600    295.52559    -1202.208     269.0702    390.86341   -13.513943    38174.007 
   13700    300.84623   -1178.9642    258.93523    427.80954   -36.355247    38174.007 
   13800    298.63712   -1205.5405    263.02325    395.42413    248.95985    38174.007 
   13900    295.81959   -1141.3274    272.08305    456.07405    248.79242    38174.007 
   14000    302.28314   -1194.8886     267.3425    426.73003    190.74853    38174.007 
   14100    309.02266   -1176.2649    270.52582    478.73116    675.72515    38174.007 
   14200    297.23358     -1218.16    266.15009    379.64329    718.00227    38174.007 
   14300    302.17229   -1180.9579    268.56888    441.39041    700.64137    38174.007 
   14400    303.78974    -1212.874    256.76025    404.91218    719.52264    38174.007 
   14500    292.42554   -1198.6834    265.34602    376.77508    631.34814    38174.007 
   14600    303.53958   -1182.1386    287.70435    465.47089      721.946    38174.007 
   14700    309.11312   -1173.2914    259.03429    470.61832    670.22384    38174.007 
   14800    303.28154   -1133.3652    287.45921    512.84309    1128.8463    38174.007 
   14900    295.45284   -1196.7526    249.12739    376.05003    215.37362    38174.007 
   15000    298.44157   -1199.7136    272.88674    410.23841    582.05655    38174.007 
   15100    304.32426   -1224.4928    275.86237    414.79021     513.7714    38174.007 
   15200    291.01207    -1196.235    258.36277    365.90764    394.78001    38174.007 
   15300    295.56002   -1170.8615    263.75528    417.04916    257.76537    38174.007 
   15400    301.24723   -1221.7436     257.9796    385.87101    115.70262    38174.007 
   15500    294.90831   -1203.9203    258.29541    375.61078    93.774151    38174.007 
   15600    305.64841   -1205.9965     267.2889    430.64545    87.271557    38174.007 
   15700    303.55362   -1191.7021    273.67287    441.93876   -46.941109    38174.007 
   15800    295.71624    -1190.934    244.53852    378.45979     262.1311    38174.007 
   15900    295.86234   -1223.7643    270.13299    371.87859    362.23968    38174.007 
   16000    292.53195   -1207.5872    270.28763    373.28959    406.76958    38174.007 
   16100     301.9475   -1188.1478    275.51934    440.14391    597.22172    38174.007 
   16200    296.80922   -1244.5533    256.08953     341.2883    175.14062    38174.007 
   16300    306.29404   -1197.3248     254.9799    429.90066    394.45083    38174.007 
   16400    289.16969   -1230.5185    256.52823     321.5355    654.39339    38174.007 
   16500    294.64028   -1208.8657    273.51781    384.68696    305.11008    38174.007 
   16600    306.31739   -1197.0688    270.77917    446.06053    431.77194    38174.007 
   16700    295.17883   -1235.7069    252.43395    339.17465    603.18881    38174.007 
   16800    307.42181   -1239.8301    271.45555    408.92359     13.20647    38174.007 
   16900    298.06647   -1261.6383    282.23354    355.97995    272.03886    38174.007 
   17000    300.10462   -1215.1792    254.55943    383.89617     358.3038    38174.007 
   17100    293.03076   -1211.0815    272.97871     374.7212    274.08404    38174.007 
   17200    294.72059    -1232.098     273.4134    361.71004   -59.624929    38174.007 
   17300    299.07744   -1237.6476    269.18105    371.44743    464.71837    38174.007 
   17400    313.14857    -1221.642    277.56249    458.87537    97.635681    38174.007 
   17500    298.99563   -1214.7851    261.72446    386.48689     25.98461    38174.007 
   17600    288.93476   -1207.3279    272.58691    359.73222    214.05951    38174.007 
   17700     301.8838   -1214.1567    278.29126    416.62157    572.66214    38174.007 
   17800    290.55939   -1224.7254    289.20513    366.23153    454.32999    38174.007 
   17900    300.26382   -1234.0378    266.08314    377.27456    655.79231    38174.007 
   18000    307.15589   -1200.1249    266.68118    442.66309    446.10698    38174.007 
   18100    310.11611   -1202.8666    284.55841    471.06085    207.29731    38174.007 
   18200     304.1918   -1182.5273     288.6148    468.91471     458.0534    38174.007 
   18300    303.57244   -1202.1349    267.29132    425.20878    1.7672348    38174.007 
   18400    302.99735   -1162.8426    269.36103    463.99431    330.57563    38174.007 
   18500    294.99174   -1207.3081    266.87148    381.17284    330.18752    38174.007 
   18600    293.06399   -1202.2731    277.35605    388.05575    325.41005    38174.007 
   18700    297.91859   -1214.9518    300.07335    419.84379    711.34129    38174.007 
   18800    303.87252   -1196.3048    294.81374    459.90571     205.4057    38174.007 
   18900    298.69767   -1187.6887    277.05496    427.57887   -38.168948    38174.007 
   19000    304.89031   -1172.2657    293.78136     487.4723    517.83899    38174.007 
   19100    303.74792   -1202.4657    280.63443    439.00721   -273.41848    38174.007 
   19200    297.41292   -1194.0082    302.00441    440.45293    41.120475    38174.007 
   19300     302.8598   -1149.1378    285.71508    493.43693    147.21513    38174.007 
   19400     294.3774   -1200.5299    286.09398     404.4212   -26.136958    38174.007 
   19500    307.47141   -1183.1677    287.57297    481.92566    501.27705    38174.007 
   19600    299.00235   -1214.4592    284.01132    409.12981   -239.56008    38174.007 
   19700    296.91206   -1210.2168    289.47177     409.4678   -29.790063    38174.007 
   19800    298.61835   -1191.4211    291.18234    437.61846     68.29151    38174.007 
   19900    299.32702   -1198.2143    300.20714    443.02499    262.52776    38174.007 
   20000    303.07444   -1213.3579    279.75885    424.22213    357.73307    38174.007 
   20100    293.75686   -1214.5156    278.69512    380.25648    349.81985    38174.007 
   20200    304.86896   -1217.0322    276.09928    424.92805    333.45037    38174.007 
   20300    293.82326   -1172.0345    304.46285    448.80283   -229.84165    38174.007 
   20400    300.46517   -1208.5947    300.15314    437.68974    1.0231009    38174.007 
   20500    299.97396   -1223.0808    282.99656    403.84634   -456.15255    38174.007 
   20600    299.21809   -1241.8733    294.92676    393.59762    36.709365    38174.007 
   20700    289.78377    -1231.699    288.76096    355.33893   -438.80025    38174.007 
   20800    298.25061   -1208.6924    305.21154    432.72885    200.76383    38174.007 
   20900    300.44713   -1191.0191    268.83653     423.8679    83.239755    38174.007 
   21000    304.44078   -1209.5595    292.91239    447.29547    494.52393    38174.007 
   21100    300.80143   -1183.9742    318.90067    482.56428    306.11187    38174.007 
   21200    314.91676   -1235.6299    296.84426    472.09105     268.6179    38174.007 
   21300    297.82076   -1234.7397    293.21202    392.75624    97.000621    38174.007 
   21400     306.8122   -1204.0821    286.22091    456.70579    466.59907    38174.007 
   21500    291.28508   -1203.6468     308.8034     410.1596    167.51683    38174.007 
   21600    300.69201   -1272.5517    290.05666    364.65249    149.60003    38174.007 
   21700    303.41347   -1199.5058     296.5417    456.37607    302.19298    38174.007 
   21800    295.94313   -1228.2004    316.58837    414.25977   -18.116951    38174.007 
   21900    303.92368   -1255.9274    280.67603    386.37457    155.98008    38174.007 
   22000    290.98454   -1231.1692    314.54557    387.03296   -308.34902    38174.007 
   22100    306.83928   -1239.2245    320.72211    456.18585    189.99467    38174.007 
   22200     304.7102   -1222.4402    313.64989    456.35935   -294.34164    38174.007 
   22300    300.58321   -1212.8005    313.32242    447.18205    -171.1201    38174.007 
   22400     292.6288   -1225.5671    320.84265    406.29866   -288.99142    38174.007 
   22500    299.31553    -1233.328    309.64689    417.29961   -206.76435    38174.007 
   22600     294.0363   -1242.1677    313.72646    388.88767     396.0972    38174.007 
   22700    303.57369   -1226.7239    306.54405    439.87807    430.68542    38174.007 
   22800    300.70991   -1196.0314    306.94424    458.14067     153.3656    38174.007 
   22900    291.89638   -1260.8636    318.10484    364.98297    329.01075    38174.007 
   23000    298.06483   -1240.4878    317.16144    412.05105    98.712904    38174.007 
   23100    293.50868   -1220.2059     324.7281    419.48731    668.83107    38174.007 
   23200    297.68657   -1274.2486    315.37293    374.80709    78.119643    38174.007 
   23300    297.38266   -1297.5698    301.17659    335.92793    232.72294    38174.007 
   23400    301.68567   -1274.0115    329.51307    407.10089    160.77838    38174.007 
   23500    304.66191   -1216.3408    320.74868     469.3412    93.328573    38174.007 
   23600    293.93041   -1238.8231    313.40948    391.44093   -244.86832    38174.007 
   23700    294.38293   -1227.6753    310.43499    401.64159   -424.49872    38174.007 
   23800     308.4599   -1222.2892    320.57544    480.23517   -19.393278    38174.007 
   23900    306.29007   -1230.6989    331.79069     473.3196    119.57099    38174.007 
   24000    299.08854   -1272.9486    288.38404    355.39916   -267.94123    38174.007 
   24100    298.15041   -1306.0412    296.20871    325.92834    275.18657    38174.007 
   24200    291.69012   -1295.6637    318.39813    329.55208    478.81548    38174.007 
   24300    308.31045   -1312.6462     309.1882    377.82136    647.36264    38174.007 
   24400    308.96632   -1281.5679    302.49288    405.14273    1117.4887    38174.007 
   24500    300.49968   -1301.5181    310.82421    355.59199     878.4034    38174.007 
   24600    298.32147   -1219.4471    324.77841    441.85849    497.32876    38174.007 
   24700    294.59364   -1266.8987    328.88254    381.80971    615.40949    38174.007 
   24800      290.966   -1291.0634    326.79615    339.30627    584.70635    38174.007 
   24900    302.09456   -1257.3399    308.23269    404.32401    209.54506    38174.007 
   25000    299.62475   -1314.4032    329.90168    357.86454    2.3850552    38174.007 
   25100    305.96471   -1316.8053    344.14174    398.10647    387.63721    38174.007 
   25200     300.9255   -1289.0663    317.91323    377.04061    84.506409    38174.007 
   25300    296.82219   -1286.6558    333.72038    376.87474    422.17279    38174.007 
   25400    307.79546   -1284.6736      327.915    422.21356    236.94869    38174.007 
   25500    292.19543   -1304.5085    308.38649    312.95953   -11.328318    38174.007 
   25600     303.6347   -1317.0684    323.03724    366.30016    239.70798    38174.007 
   25700    310.64052   -1311.3563    334.41831    414.78049    415.82565    38174.007 
   25800     301.1795   -1279.7529     325.0775    394.65618   -24.559984    38174.007 
   25900    298.45449   -1327.0967    325.19936    335.22581   -92.404976    38174.007 
   26000    303.86586   -1309.7738    307.18703    358.78013    338.63718    38174.007 
   26100    304.27353   -1300.1756    323.66273    386.68044    512.79472    38174.007 
   26200    300.74083   -1299.5064    328.55381    376.41365    114.84271    38174.007 
   26300    301.41547   -1329.6214    326.08028    346.84763   -146.11475    38174.007 
   26400    298.28511   -1304.5706    329.53322    361.32692    500.34251    38174.007 
   26500    303.40727   -1298.7532    321.07447    381.63363    182.53064    38174.007 
   26600     292.0857   -1321.4409     321.5092    308.65822     72.15405    38174.007 
   26700     302.1501   -1265.0046    332.80395    421.47934   -726.87512    38174.007 
   26800    298.28764   -1280.2248    351.14676    407.29754   -640.36855    38174.007 
   26900    295.28253   -1276.2353    338.62427    385.30121    94.455488    38174.007 
   27000     296.7388   -1314.1327    301.87788    317.18179   -319.71592    38174.007 
   27100    302.04959   -1322.5038    315.89832    346.62421     120.6599    38174.007 
   27200    301.23314   -1320.5956    311.09645    340.07279   -265.99843    38174.007 
   27300    292.71113   -1311.7921    324.76202    324.36186    141.40498    38174.007 
   27400     297.1992    -1307.801    314.84998    338.54823   -83.602718    38174.007 
   27500    305.77051    -1295.319    331.88916    406.47024    530.54033    38174.007 
   27600    305.26533   -1284.9043    325.33384    408.06627    19.392305    38174.007 
   27700    306.75361   -1249.3968    350.55253    475.46017    652.65192    38174.007 
   27800    297.92938   -1285.2597    320.05112    369.56198    201.50903    38174.007 
   27900    308.04683   -1259.1766    335.32866    456.25036    991.43444    38174.007 
   28000    302.55035   -1265.2902    335.33453    425.51759     451.3849    38174.007 
   28100    300.04576   -1271.3086    319.62491    392.56859    362.15039    38174.007 
   28200    296.51585   -1255.9944    339.77443    412.21775    166.81536    38174.007 
   28300    309.39735   -1277.4469    319.25442    427.95636     87.66901    38174.007 
   28400    299.03438   -1292.8778    316.95078    363.79408   -64.821678    38174.007 
   28500    305.19462   -1281.1187    345.11105    431.31236    368.21232    38174.007 
   28600    302.62965   -1276.9248    356.69485     435.5985    40.768505    38174.007 
   28700    307.42017   -1262.6164    319.58655    434.26093    315.05762    38174.007 
   28800    307.69477   -1248.1905    360.29599    490.62653    501.76349    38174.007 
   28900    299.53377   -1261.6998    337.01241    417.27114   -50.891846    38174.007 
   29000    301.09438   -1269.2465    316.11096    395.81468    134.30893    38174.007 
   29100    307.48373    -1278.514    337.24494    436.30643   -126.16229    38174.007 
   29200    285.58289   -1319.2509    341.20949    301.41488   -526.84464    38174.007 
   29300    295.92837   -1290.0234    321.51838    357.30071   -172.68469    38174.007 
   29400    292.28987   -1309.5084    360.15875    360.15501    76.912647    38174.007 
   29500    304.64282   -1273.6443    344.42701    435.63051   -138.75097    38174.007 
   29600    296.19427   -1296.0495    334.80718    365.75468    562.41786    38174.007 
   29700    296.25209   -1293.1132    329.62059    363.76345    226.27806    38174.007 
   29800    293.58902   -1301.2547     338.9048    352.97513    388.86339    38174.007 
   29900    287.79125   -1287.1109    344.30198    346.54125   -256.59602    38174.007 
   30000     297.6999   -1340.3112    339.17819    332.60941    643.32981    38174.007 
   30100    289.42125   -1305.8169    345.40314    336.23902    412.54502    38174.007 
   30200    295.97507   -1302.7567    367.86606    391.12432    174.45157    38174.007 
   30300    299.42685   -1278.7047    348.89098    411.66575   -85.619358    38174.007 
   30400    290.22375   -1267.3683    356.34614    389.22597   -211.67971    38174.007 
   30500    294.67631   -1316.8644    337.29587    340.62775    245.85009    38174.007 
   30600    315.24241   -1311.0676    327.92266    429.19074    271.20198    38174.007 
   30700     298.4121   -1328.0151    375.11237     384.0305    55.808442    38174.007 
   30800    294.85754    -1373.138    354.29502     302.1652   -459.35804    38174.007 
   30900    309.10943   -1326.7331    340.40202    398.52783    211.61177    38174.007 
   31000    294.93088   -1356.6504    340.89928    305.58562    7.8838726    38174.007 
   31100    302.55875   -1327.2103    356.85422    385.15481   -303.67602    38174.007 
   31200     295.3519   -1324.3774    363.64542    362.49107    101.90734    38174.007 
   31300    305.36358   -1369.4697    347.39081    345.99801    211.04461    38174.007 
   31400    300.32726   -1318.4607    344.71685    371.76954    315.32527    38174.007 
   31500    306.66496   -1317.3795    341.67082    398.19868      196.932    38174.007 
   31600    292.69381   -1320.4102    339.64811    330.55225    208.46555    38174.007 
   31700    293.49148   -1306.7526    361.00545    369.14091    568.93683    38174.007 
   31800    294.15982   -1333.5221    361.21227    345.57244    101.76958    38174.007 
   31900    300.83065   -1301.3808    339.29547    385.68339   -562.16937    38174.007 
   32000    295.29358   -1313.9639    356.14823    365.14607    74.682842    38174.007 
   32100    300.92716   -1350.7812    345.06802    342.48792   -101.98994    38174.007 
   32200    312.37574   -1334.4333    340.56629    405.62554     319.1412    38174.007 
   32300    300.40038   -1320.6337    344.83034    370.03765    35.911293    38174.007 
   32400    294.34885   -1303.9996    347.06221    361.79186    69.222448    38174.007 
   32500    309.06902   -1326.7963    353.12881    411.01044    167.36537    38174.007 
   32600    292.88094   -1336.3959    342.21604    317.97289    393.43627    38174.007 
   32700    299.88816   -1365.2037       332.15    310.49244    606.82872    38174.007 
   32800    299.09924    -1378.072    359.04799    320.98766    742.54952    38174.007 
   32900    305.42984   -1407.3593    343.40824    304.42275    654.33724    38174.007 
   33000    297.10467   -1389.6706    363.20797    304.61305    574.09957    38174.007 
   33100    297.95041   -1386.8207    337.28394    285.32798     625.4397    38174.007 
   33200    297.53542   -1372.9006    366.96962    327.07455   -151.90929    38174.007 
   33300    295.72803   -1352.4894    355.40884    327.82759    285.46143    38174.007 
   33400    302.19035    -1347.725    348.84171    354.97709    73.284348    38174.007 
   33500    294.72451   -1323.5441    358.21492    355.08306    342.71291    38174.007 
   33600    306.76758   -1327.1272    362.21519    409.45509    455.07972    38174.007 
   33700    295.33034   -1369.9895    344.03278    297.16968     195.4523    38174.007 
   33800    308.14786   -1339.3676    366.79358    407.97691    95.896192    38174.007 
   33900    292.25109    -1347.707     341.0139    302.63782   -764.98648    38174.007 
   34000    289.42535   -1331.5824    371.83656    336.92527   -450.45874    38174.007 
   34100    301.06236   -1339.8011    350.61487    359.62054   -587.15673    38174.007 
   34200    303.49396    -1390.048    358.38567    328.03843   -308.89666    38174.007 
   34300    289.36279   -1401.7201    362.10709     256.7779   -255.33329    38174.007 
   34400    300.05094   -1364.8363     343.9664    323.40551    244.80254    38174.007 
   34500    294.42456    -1357.442    354.67686    316.30327   -357.46768    38174.007 
   34600    297.61421    -1339.457    355.69001    349.59151    9.7256658    38174.007 
   34700    299.73279    -1357.005    350.98778    336.83291    169.00995    38174.007 
   34800    304.22535   -1354.9677    363.84917    371.85894    107.25486    38174.007 
   34900    297.78117   -1352.0315    347.77258    329.84765    481.42165    38174.007 
   35000    305.56719   -1330.2893    351.28614    389.98595   -99.007842    38174.007 
   35100     297.9709   -1290.7508    373.05693    417.26273   -117.06911    38174.007 
   35200    296.90795   -1324.9599     363.3149    368.54938    -385.8147    38174.007 
   35300    310.59103    -1314.205    372.80789    450.09965   -10.266599    38174.007 
   35400     306.6909   -1351.7393    352.83118    375.11546   -389.55014    38174.007 
   35500    307.23387   -1331.6868    356.94642    401.71574   -111.96574    38174.007 
   35600    300.64046   -1321.2418    372.59023    398.26507   -236.46769    38174.007 
   35700    302.73864   -1373.1312    363.68845    346.87404    464.83954    38174.007 
   35800    295.18382    -1355.407    357.18613    324.24914    177.04545    38174.007 
   35900    293.15285   -1348.2061    359.48073    324.64557    482.88118    38174.007 
   36000     308.3575   -1342.6646    360.77793    399.60345    114.99066    38174.007 
   36100    290.57973   -1309.9721    371.98452     363.8554    440.66047    38174.007 
   36200    304.36361   -1310.3165    362.39799    415.67844    352.16669    38174.007 
   36300    300.83102    -1313.143    354.49696    389.12434    185.64451    38174.007 
   36400    298.23895   -1366.8629    357.66738    326.96199    76.374066    38174.007 
   36500    296.15703   -1309.2304    359.53108    377.13085   -292.17101    38174.007 
   36600    285.40377   -1328.1952    358.06762    308.52627   -196.58035    38174.007 
   36700    291.64515   -1342.0815    386.87266    351.40739   -371.34443    38174.007 
   36800    303.34177    -1366.168    360.03623    352.88715    40.209808    38174.007 
   36900    291.08452   -1340.7176    379.82351    343.21041   -20.802685    38174.007 
   37000    298.86284   -1348.8172    378.06535    368.20073    81.477406    38174.007 
   37100    297.36975   -1358.9043    365.74133    339.10033    356.41833    38174.007 
   37200    295.33033    -1338.267    383.42539    368.28477    257.39604    38174.007 
   37300    295.65844   -1339.5027    381.16359    366.25727    165.64773    38174.007 
   37400    305.48337   -1322.6763    392.58617    438.52345    181.79783    38174.007 
   37500    301.45266   -1328.1099    384.77379    407.21931   -146.09292    38174.007 
   37600    295.43517    -1359.969    374.10929    337.73634   -278.94816    38174.007 
   37700    295.39902   -1334.0771    388.33499    377.69198   -10.037169    38174.007 
   37800    311.45729   -1361.7078    362.27865    395.94855   -46.992304    38174.007 
   37900    308.70511   -1377.8179    363.99498    369.22455    21.408485    38174.007 
   38000    295.45173   -1397.5307    375.20541    301.34503   -140.92573    38174.007 
   38100    303.98624   -1358.2639    382.40538     386.0477    104.33349    38174.007 
   38200    303.96981   -1375.0556    381.11269    367.88966    93.051255    38174.007 
   38300    298.83634   -1378.8803    363.21924    323.17281    304.62804    38174.007 
   38400    292.41707   -1408.1944    371.79451    273.67467    249.55595    38174.007 
   38500    309.10076   -1399.4838    368.72111     354.0574    373.45868    38174.007 
   38600    317.69565   -1323.0913    380.17904    480.41432    368.15693    38174.007 
   38700    291.54084   -1368.4847    375.55588    313.22008    326.46542    38174.007 
   38800     292.9303   -1334.7425    365.33849    342.96989     598.3631    38174.007 
   38900    302.79417   -1397.0943    341.73793    301.20917    368.53526    38174.007 
   39000    301.78628   -1409.1792    364.70952    307.58035   -11.717825    38174.007 
   39100    294.12761   -1351.8392    361.36552     327.2643     300.6477    38174.007 
   39200    291.34452   -1346.2638    387.54297    346.54851    47.610829    38174.007 
   39300    294.86831   -1335.0834    373.12474    359.09779   -187.81984    38174.007 
   39400    304.16199   -1370.5115     361.1274    353.30956   -148.69164    38174.007 
   39500    317.69059   -1380.4193    356.16868    399.05332    363.80819    38174.007 
   39600    306.31174   -1334.4031    370.78493    408.70668   -60.267966    38174.007 
   39700    298.33664   -1345.8207    377.62463    368.39909    85.708031    38174.007 
   39800    291.98831    -1330.421    383.87344    361.60604    47.658872    38174.007 
   39900    298.38561   -1352.1351    386.71928    371.39874    135.51408    38174.007 
   40000    304.60974   -1415.7166     379.8186    328.80167    301.07364    38174.007 
   40100    310.14886   -1398.9437    363.23208    353.80415    234.05345    38174.007 
   40200    296.84082    -1378.363     377.7802    329.31086   -305.36229    38174.007 
   40300    289.34315   -1392.7814    362.01034    265.53185   -310.49393    38174.007 
   40400    298.42665   -1357.3421    371.55605    351.21239    237.24495    38174.007 
   40500    295.01135   -1420.8745    361.76706    262.58989   -57.205558    38174.007 
   40600    293.99683   -1392.9335    359.35651    283.57516    575.64315    38174.007 
   40700    305.32847   -1384.7762    367.77709    350.92052    750.81548    38174.007 
   40800    297.78705   -1403.6245    359.11844    289.62683    531.55881    38174.007 
   40900    302.68764   -1420.8023     365.0039    300.28986    365.80998    38174.007 
   41000    301.78253   -1371.5337      375.387    355.88659     133.2816    38174.007 
   41100    307.99577   -1355.0199    392.59151    417.44115    112.81545    38174.007 
   41200    303.81847    -1358.541     389.6043    392.21793   -398.28809    38174.007 
   41300    302.99161   -1367.6726    387.54219    377.31971   -257.71976    38174.007 
   41400    305.17124   -1375.9169    384.85689    376.15525   -694.87316    38174.007 
   41500    301.53794   -1394.8402       383.84    339.93723    8.5674699    38174.007 
   41600    293.90563   -1326.0827     408.1545    398.81535   -17.770608    38174.007 
   41700    298.25935   -1335.8342    365.20148    365.61619    61.592935    38174.007 
   41800     303.5009   -1318.3459    384.00758     425.3935    10.837143    38174.007 
   41900    294.33754    -1321.696    412.95477    409.93735    343.78831    38174.007 
   42000    300.45276   -1346.8672    366.51023    365.71871   -120.69584    38174.007 
   42100    303.01394   -1361.6914    383.02462    378.88338   -442.63053    38174.007 
   42200    297.08155    -1357.338    386.96835    360.60245     -426.043    38174.007 
   42300    297.70738   -1389.6906    406.53805    350.62339   -390.73194    38174.007 
   42400    289.20042   -1380.3871    400.91984    316.19615   -678.81003    38174.007 
   42500    287.48788   -1348.7256    377.07225    316.33767   -273.60279    38174.007 
   42600    305.42772   -1358.2716    367.56812    377.66086   -36.445302    38174.007 
   42700    311.74224    -1335.963    364.79148    425.48281    169.38736    38174.007 
   42800    300.15821   -1403.8839    375.90536    316.77751    81.652333    38174.007 
   42900    295.35576   -1375.3469    389.49178    337.38517     135.0161    38174.007 
   43000    301.90846   -1394.4985    367.80327     325.9022    210.98716    38174.007 
   43100    304.62135   -1425.5855    360.77603     299.9422    441.17841    38174.007 
   43200    301.93355   -1415.2802    409.38171     346.8114    239.09482    38174.007 
   43300     305.6224   -1396.2468    385.11181    358.10147    424.30865    38174.007 
   43400    299.53592   -1384.6496    378.31504    335.63357    496.54268    38174.007 
   43500    307.06312   -1377.5217    369.13499    367.30444     363.8993    38174.007 
   43600    299.33629   -1379.0132    391.94542    354.00591    308.46309    38174.007 
   43700    309.25881   -1398.6394    366.08564    352.97443    317.35312    38174.007 
   43800    298.95808   -1401.7729    353.51245    291.11878    477.27177    38174.007 
   43900    292.96225    -1435.628    373.29104    250.18005    126.92369    38174.007 
   44000     301.3434    -1453.522    350.72749    247.27137    470.30591    38174.007 
   44100    299.52376   -1438.7784    377.36215    280.49731    290.80057    38174.007 
   44200    302.62449   -1380.6028    375.36963    350.57223    335.28392    38174.007 
   44300    303.59769   -1386.4068    386.17499     359.9337    173.70384    38174.007 
   44400    294.58132   -1376.6682    357.90639    301.00887    388.67107    38174.007 
   44500    293.93414   -1392.5133    385.20153    309.55944     657.2688    38174.007 
   44600    304.36891   -1365.1015    392.60867     391.1278    585.30708    38174.007 
   44700    301.59327   -1356.5645    387.61319    382.23402    466.45063    38174.007 
   44800    291.43861   -1340.1526    365.56967    331.10796      455.662    38174.007 
   44900    297.81676   -1344.1084    396.41982    386.57741    815.55803    38174.007 
   45000    309.21986   -1338.5431    386.98646    433.79703    644.53285    38174.007 
   45100    299.18406    -1342.518    398.32616     396.1999    226.00437    38174.007 
   45200    295.28639   -1361.0329    409.43537    371.33199    859.02605    38174.007 
   45300    310.34256   -1399.5838    384.25709    375.05684     831.7305    38174.007 
   45400    295.15429   -1406.1173    404.31249    320.53292    431.32702    38174.007 
   45500    295.00865   -1395.6107    399.79137    325.86594    990.20191    38174.007 
   45600    310.23956   -1418.7771    379.48665    350.63165    520.68865    38174.007 
   45700    291.26522   -1374.8776    389.17539    319.21181    531.01482    38174.007 
   45800    298.59107    -1354.428    390.19589    373.50289    507.50439    38174.007 
   45900    306.07216   -1370.1901    374.27024    375.33161    397.25361    38174.007 
   46000    286.02364   -1358.8975    383.04891    305.58238     258.6049    38174.007 
   46100    293.77337   -1346.8179    395.74674    365.07981    -197.5894    38174.007 
   46200    299.35165   -1395.2159    375.01713    320.94378   -212.32321    38174.007 
   46300    297.00365    -1349.486     374.4451    355.58222   -624.06476    38174.007 
   46400    312.07045   -1394.1899    375.11331    379.04817    -588.4458    38174.007 
   46500    301.51743   -1391.4944    379.64855    338.99977   -660.83314    38174.007 
   46600    299.76284   -1412.5232    399.35538    329.81689    -748.6904    38174.007 
   46700    307.47605   -1334.6734    394.60966    437.47736   -601.26015    38174.007 
   46800    307.87053    -1366.002    396.86275    410.16924   -588.53296    38174.007 
   46900    306.90507   -1381.0142    404.01194    397.98079   -94.400986    38174.007 
   47000     285.6887   -1363.1111    402.86896    319.68821   -432.03628    38174.007 
   47100    298.29726   -1349.9337    410.03594    396.52091   -420.23091    38174.007 
   47200     287.7223   -1368.5526    384.37535    304.86393     14.00064    38174.007 
   47300    307.02359     -1401.22    389.53103     363.8251    56.321065    38174.007 
   47400     300.6695    -1411.292    402.82386    338.57858    193.86351    38174.007 
   47500    298.94252   -1381.7199    395.44949     353.0392    213.24148    38174.007 
   47600    297.36039   -1332.0641    393.03901    393.19628    220.03515    38174.007 
   47700    307.76695    -1373.404      400.699    406.13936     425.1105    38174.007 
   47800    299.94438   -1363.7987    389.64619     369.6456    575.28351    38174.007 
   47900    292.18455   -1352.7667    414.20122    370.46732   -241.10279    38174.007 
   48000    299.93406   -1353.7679    403.89646    393.88036    393.97831    38174.007 
   48100    305.18848   -1361.5352    407.93167    413.68889    96.878806    38174.007 
   48200    292.79247   -1375.4079    402.59725    338.94572     146.4015    38174.007 
   48300    298.12589    -1378.047    413.38404    370.98802    48.598829    38174.007 
   48400    289.42554    -1389.265    389.35339    296.76039   -530.04528    38174.007 
   48500    310.35101   -1361.6221    399.86671    428.66607    3.1896623    38174.007 
   48600     319.4209   -1392.3733    376.38049    415.06315   -591.53347    38174.007 
   48700    284.43153   -1387.6692    371.03941    257.66823   -332.54261    38174.007 
   48800    292.55848   -1391.1801     388.9123    308.44028   -99.130077    38174.007 
   48900    303.62032   -1406.6397    399.39414    353.02134    432.83246    38174.007 
   49000    293.83769   -1418.5224    392.76397    290.68071    230.83378    38174.007 
   49100     312.7364   -1340.0176     405.1445    466.23521   -90.781791    38174.007 
   49200    297.82053   -1366.7561    416.93405    384.46078   -116.54671    38174.007 
   49300    309.07072   -1397.2705    420.85734    408.27232    91.010819    38174.007 
   49400    292.32289   -1407.8999    401.84353    303.59615   -46.282887    38174.007 
   49500    292.78277   -1417.1282    400.18569    294.77041     432.2323    38174.007 
   49600    301.45104   -1389.0304    409.72625    371.24403    424.00223    38174.007 
   49700    291.78645   -1419.1372    407.15425    295.26627    206.55422    38174.007 
   49800    291.17363   -1392.4698    404.61848    316.65238   -157.64227    38174.007 
   49900    298.55721   -1366.7388    397.72003    368.56454   -216.27548    38174.007 
   50000    302.50277   -1367.8084    403.06386    390.51555     244.5992    38174.007 
   50100    302.44453   -1368.3399    405.46657    392.12577    529.45068    38174.007 
   50200    296.72717   -1362.8695    417.56949    384.08443    395.13945    38174.007 
   50300     294.7862   -1412.2898    394.78803    303.18679    366.64697    38174.007 
   50400    290.26091   -1343.2901    412.74044    369.86495    572.89569    38174.007 
   50500    287.87724    -1359.294    421.83593     352.2773    311.56431    38174.007 
   50600    299.45574     -1336.44    402.52056    407.68942    353.17626    38174.007 
   50700    297.18398   -1340.2697    413.63152    404.79283    154.84508    38174.007 
   50800    300.01523   -1348.4648    411.75388    407.40458    203.77403    38174.007 
   50900    309.08656   -1368.9989    415.69343    431.45098    409.22165    38174.007 
   51000    303.48382    -1385.065    418.80334    393.39364    282.32275    38174.007 
   51100    297.40654   -1367.6266    408.62818    373.42971   -28.889654    38174.007 
   51200    303.60281   -1347.6252     424.2024    436.76556    244.63312    38174.007 
   51300    293.53558   -1321.4834    433.81108    427.41331   -222.80423    38174.007 
   51400    305.65892   -1333.7892    424.79945    460.41036    433.55771    38174.007 
   51500    305.65421   -1372.0412      403.603    400.94079    757.24841    38174.007 
   51600      304.483   -1362.7214    432.02267     433.4331    53.533664    38174.007 
   51700    294.94916   -1354.8036    420.04948    386.66454   -323.30726    38174.007 
   51800    291.66297   -1321.1823     405.1591     390.6729   -157.46386    38174.007 
   51900    302.04444   -1304.1106    414.61293    463.70896   -258.56979    38174.007 
   52000    301.93878   -1350.5325    403.55266    405.75341    179.80364    38174.007 
   52100    307.74151   -1334.5545    439.28727    483.46321   -6.6361698    38174.007 
   52200     300.3371   -1319.1572     426.1085    452.50881    482.87827    38174.007 
   52300    292.37231   -1363.2421    414.75371    361.38563   -100.59611    38174.007 
   52400    307.43206   -1314.9478    425.56427    487.96053    334.27745    38174.007 
   52500    308.19153    -1358.391    414.38487    436.74046   -248.34311    38174.007 
   52600     313.4009   -1353.2831    429.79499    480.59731     297.6586    38174.007 
   52700    299.20689   -1364.8295    402.12462    377.78915    367.27531    38174.007 
   52800    309.40163   -1347.1883    440.67991    479.65959    285.56791    38174.007 
   52900    305.90512   -1397.8587    412.59653    385.24096    80.336039    38174.007 
   53000    290.45376   -1427.3526    401.08913    275.01516    26.782978    38174.007 
   53100    296.68354   -1479.7801     418.1727    267.58161   -82.609032    38174.007 
   53200      311.512   -1409.6539    397.03605    383.00494    376.38661    38174.007 
   53300    304.37753   -1404.8613     392.2826    351.08061    229.06159    38174.007 
   53400     307.4983   -1389.1395    403.16791    391.66925    267.73286    38174.007 
   53500    301.06308   -1384.3044    424.09478    388.60033    120.43826    38174.007 
   53600     298.0354   -1457.7381     391.0834    268.59085    492.07802    38174.007 
   53700    297.81909   -1409.2665    419.01422    344.02418    96.048336    38174.007 
   53800    294.99732   -1398.3758    429.73616    352.99484    17.273818    38174.007 
   53900    301.83311   -1415.6917    416.19548    352.76362   -223.88092    38174.007 
   54000    296.56361   -1363.2855    408.39877    373.76489    88.107774    38174.007 
   54100    305.09473   -1351.4389    439.17282     454.6064    202.96339    38174.007 
   54200    301.26269   -1337.3209    453.63378     466.0172    333.34274    38174.007 
   54300    308.12033   -1401.8967    418.78682    397.31772    64.078858    38174.007 
   54400    304.47002   -1410.3827    440.64148    394.33238    -158.3775    38174.007 
   54500    305.53081   -1341.3963    402.16082     429.5907   -99.122898    38174.007 
   54600    301.03466   -1410.1271    438.15721    376.71277    124.16281    38174.007 
   54700    293.88809   -1361.7312    413.75074    368.68454    208.57784    38174.007 
   54800    291.24884   -1380.1926      461.066    385.71407   -184.62216    38174.007 
   54900     295.2582   -1385.0179    459.46736    397.25267   -467.99673    38174.007 
   55000    302.35553   -1426.3298    422.21489    350.48551    97.047447    38174.007 
   55100    303.24564    -1418.549    414.75244    354.79168    181.71718    38174.007 
   55200    295.93166   -1384.0915     427.7767    369.50568   -201.86201    38174.007 
   55300    294.65741   -1368.5458    436.08634    387.65213    -175.5982    38174.007 
   55400    295.74544   -1389.2397    400.12595    335.87242    321.80559    38174.007 
   55500     303.9081   -1412.7254    443.74314     392.5739    490.20715    38174.007 
   55600    301.11701   -1416.8381    421.21935    353.43288    321.58852    38174.007 
   55700    296.81024   -1437.1257    419.21976    311.85066   -35.858495    38174.007 
   55800    314.19853   -1439.3693    398.39377    366.68334    397.13825    38174.007 
   55900    301.07571   -1427.0897    440.34365    362.12053   -391.13984    38174.007 
   56000    293.91125   -1457.9581    433.33867    292.14928     12.18987    38174.007 
   56100    308.98912   -1439.0483    432.57805    377.84968    73.843788    38174.007 
   56200    293.79116   -1470.9868    428.58319    273.82709    263.11507    38174.007 
   56300      296.167   -1457.8194    418.52701    287.58244    148.68551    38174.007 
   56400    310.15575   -1482.9546     407.9009    314.49294    307.67003    38174.007 
   56500    296.32865   -1470.4285    410.31295    267.48346    11.410238    38174.007 
   56600    301.34633   -1443.6477    409.60655    316.03784    -246.5431    38174.007 
   56700    292.60429   -1435.6543     410.8286    286.08761   -193.31452    38174.007 
   56800     289.8772   -1435.2672    407.02325    270.45155    466.56091    38174.007 
   56900    306.07351   -1456.5757    431.59896    346.28078    600.52463    38174.007 
   57000    298.43301   -1427.0499    422.33436    332.31138    55.062767    38174.007 
   57100    293.25287   -1417.0882     413.1851    309.91595    333.15403    38174.007 
   57200    302.03653   -1402.6513     410.0602    360.58006   -34.471116    38174.007 
   57300    286.62831   -1428.0919    400.07751    256.12561    270.45858    38174.007 
   57400    311.52715   -1461.6603    411.87424    345.90463    153.64888    38174.007 
   57500    300.68393   -1413.9126    401.65815    334.85693    192.29498    38174.007 
   57600    292.51228   -1455.0727    406.87593    262.30434    117.84913    38174.007 
   57700    301.14343    -1432.318    425.94299      342.795   -183.41223    38174.007 
   57800    298.21953   -1442.5929     439.3848    332.86237   -152.18129    38174.007 
   57900    305.54273   -1455.3557    430.25827    343.78215    127.79303    38174.007 
   58000    304.38176   -1420.4509      425.231    368.45832   -106.46493    38174.007 
   58100    297.13872   -1394.2121    441.66549    378.68166    -128.1678    38174.007 
   58200    307.31045   -1396.2699    418.31729    398.84658    -114.2884    38174.007 
   58300    308.22918   -1433.9958    425.01299    371.93247    400.53163    38174.007 
   58400    290.82026   -1457.7871    410.03729     255.1708   -348.73921    38174.007 
   58500    300.51566   -1445.9536    414.37824    314.78213    107.02583    38174.007 
   58600    295.14772   -1459.1366    411.83534    275.00704    313.09978    38174.007 
   58700    291.63356   -1409.1127    403.21953    300.67111    669.05784    38174.007 
   58800    298.56925   -1442.0192    416.95885    312.57687    220.25381    38174.007 
   58900    296.16302   -1412.9063    441.44641    355.39712   -58.800337    38174.007 
   59000    305.56698   -1406.7981    443.57922    405.76937   -474.01693    38174.007 
   59100     306.3369   -1394.2171    460.02615    438.24664   -167.94445    38174.007 
   59200    303.83793   -1437.9744    434.46306    357.73045   -245.73683    38174.007 
   59300    295.59753   -1435.2233    436.59463    325.69486   -340.01282    38174.007 
   59400    290.84379   -1388.7264    404.87867    319.17827   -344.12992    38174.007 
   59500    318.56253   -1350.8802    425.54727    501.87734    272.31233    38174.007 
   59600    293.48808   -1376.3565    433.49156    372.00785    11.647829    38174.007 
   59700    305.91992   -1385.3656    434.35838    419.56218    138.97188    38174.007 
   59800    292.80843   -1399.8123    436.96528    348.98093    410.20587    38174.007 
   59900    298.02144   -1437.7317    422.88072    320.33199    113.77903    38174.007 
   60000    296.67751   -1458.2925    421.10676    291.97623    203.27558    38174.007 
   60100    288.05592   -1424.8557    426.44443    292.12464   -200.89974    38174.007 
   60200    299.29232   -1442.2524    414.88196    313.50627   -57.166503    38174.007 
   60300    310.85184   -1396.5135    417.66203    413.81374    24.719266    38174.007 
   60400    292.66962   -1440.3581    421.49837    292.34627    291.59432    38174.007 
   60500    292.71294   -1401.7014    424.81228    334.51096    124.27751    38174.007 
   60600    299.96407   -1406.6468    439.64233    376.88184   -260.65326    38174.007 
   60700    292.87479   -1386.1884    403.56976    329.50655    597.06417    38174.007 
   60800    295.63003   -1381.6515    430.80153    373.61908   -108.04429    38174.007 
   60900    304.55778   -1390.9649    427.68679    401.18868    163.01693    38174.007 
   61000    291.94949   -1411.5253    440.28533    336.73971     247.6719    38174.007 
   61100    303.70098   -1434.4374    434.43793    360.62879    331.99438    38174.007 
   61200    296.60226   -1457.6174    427.10691    298.31437    422.85974    38174.007 
   61300    294.25919   -1456.2973    410.35445    272.38466    90.559767    38174.007 
   61400    296.79848   -1458.1465    421.12547    292.68296    288.21821    38174.007 
   61500    302.87463   -1485.3387    427.90532    299.49266     359.7462    38174.007 
   61600    293.73721   -1462.3796     413.9938    267.60315    17.634331    38174.007 
   61700    303.10011   -1454.8686    411.38325    314.45083   -110.12034    38174.007 
   61800    296.34088   -1439.1031     411.8014    300.35216    -675.7113    38174.007 
   61900    293.01627   -1485.0503    411.32595    239.03464   -350.60804    38174.007 
   62000    298.14286   -1489.5554    432.12256    278.29417   -369.86003    38174.007 
   62100    296.63515   -1476.2665    423.26692    275.97257    -81.97301    38174.007 
   62200    298.60517   -1442.0648    428.35266    324.08604   -132.99516    38174.007 
   62300    301.34763   -1429.6869    449.38984    369.78774     153.0042    38174.007 
   62400    304.00664   -1438.9043    425.22735    348.32066   -15.044847    38174.007 
   62500    304.92602   -1433.7611    419.88556    352.24111    359.35285    38174.007 
   62600    299.08487   -1456.2449     416.3879    300.09035     135.3868    38174.007 
   62700    303.54769    -1440.666    431.70523    350.98068    425.75995    38174.007 
   62800    301.45855   -1449.2833    444.78838    346.08683    25.799296    38174.007 
   62900    293.91314   -1433.6058    415.38392    298.55525    165.64069    38174.007 
   63000    296.42596   -1426.3159    420.09368    321.81273   0.81097482    38174.007 
   63100    289.98525   -1430.3377    438.54962    307.39156   -378.77376    38174.007 
   63200    304.11285   -1435.3986    411.49039    338.56527   -339.29199    38174.007 
   63300    308.49895   -1428.5094    461.41837    415.03288   -475.59693    38174.007 
   63400    306.80674    -1446.301    416.64769    344.88917   -259.75135    38174.007 
   63500    318.17276   -1474.5127    411.89993    362.85131    94.271125    38174.007 
   63600    282.98827   -1487.3006    434.61182    215.14325   -146.95106    38174.007 
   63700    292.78909   -1427.5012    427.08393      311.324    91.580038    38174.007 
   63800    294.17529   -1438.0261    426.29633    306.22187    191.94838    38174.007 
   63900    297.07788   -1448.5433    434.63095    317.04337    326.50425    38174.007 
   64000    302.21947   -1446.3215    421.98115    329.65051    202.56121    38174.007 
   64100    298.01048   -1435.3407    456.44051     356.2337   -262.09414    38174.007 
   64200    302.80084   -1432.3001    426.27468    350.57004   -464.11151    38174.007 
   64300    292.79255    -1421.719    421.90668    311.94442   -448.88594    38174.007 
   64400    301.83826   -1429.8739    421.00678    343.41584   -269.59024    38174.007 
   64500    311.22248   -1411.4207    430.16986    413.07491    13.021757    38174.007 
   64600    295.24451   -1433.5467    426.61802     315.8132   -437.80947    38174.007 
   64700    295.84938   -1418.8159    425.37092    332.00686   -37.373373    38174.007 
   64800    304.86895   -1392.2561    446.25611     419.8609    129.66554    38174.007 
   64900    303.54626   -1384.8372    448.07209    423.16993    105.00222    38174.007 
   65000    309.80657   -1386.8187    445.28939    446.45294   -66.007431    38174.007 
   65100    295.86723   -1371.4573     424.4579    378.53235   -192.29897    38174.007 
   65200    292.55453   -1405.6458    447.30099    352.34554   -462.24399    38174.007 
   65300    298.48649   -1416.2315    407.39602    328.43099    240.51992    38174.007 
   65400    302.55336   -1410.9667    416.70822     361.2282   -5.4551344    38174.007 
   65500    295.94744   -1397.8784    443.07571    371.08844   -188.14182    38174.007 
   65600    293.89827   -1429.6022    418.46114    305.56954   -24.166786    38174.007 
   65700    291.97351   -1431.6096    426.24392    302.72164   -197.41467    38174.007 
   65800    300.43156   -1400.0667    433.90744    379.82144   -452.36375    38174.007 
   65900    308.56664   -1442.5971    427.27829    367.10836   -751.78598    38174.007 
   66000     287.4161   -1434.2012    428.72276    282.19093   -985.97314    38174.007 
   66100    303.83469    -1451.943    402.43356     311.7178   -634.56604    38174.007 
   66200    294.41313   -1416.9228    421.24234    323.33669   -1171.2449    38174.007 
   66300    298.07125   -1396.9713    437.16907    375.60393   -986.69544    38174.007 
   66400    298.48844   -1430.9209    421.75077    328.10509   -561.20361    38174.007 
   66500    306.44046   -1453.3897    428.27756    347.78936   -363.27736    38174.007 
   66600    291.04792   -1412.2762    440.52125    332.18555    5.1848534    38174.007 
   66700    296.63013   -1438.7057    424.32531    314.56929   -641.29088    38174.007 
   66800    298.34258   -1446.7646    436.54474    326.40189   -1240.6127    38174.007 
   66900    310.07598   -1420.3152    447.48071    416.35472    -498.8078    38174.007 
   67000    297.19724   -1447.0842    414.61634    299.02254   -435.78547    38174.007 
   67100    308.07038   -1414.9121    418.07577    383.36748   -664.10034    38174.007 
   67200    304.43799   -1414.6297    437.78215    387.08265   -343.09085    38174.007 
   67300    293.78715   -1433.1594    422.10432    305.15761   -444.06875    38174.007 
   67400    306.02902   -1422.8998    432.55451    380.71291    187.86654    38174.007 
   67500    304.32863   -1462.7478    426.32976    327.02212    554.80211    38174.007 
   67600     295.5832   -1434.5256    433.60923    323.34294    316.78775    38174.007 
   67700    295.34681     -1457.57    411.55743    277.18768    180.63692    38174.007 
   67800    299.74443   -1488.8199    396.67433    250.75674    -10.89411    38174.007 
   67900    294.86265   -1502.2387    431.06845     249.8609    223.17416    38174.007 
   68000    298.72345   -1503.3876    417.01955    251.96001    203.78035    38174.007 
   68100    296.25751   -1477.9755    421.39009    270.69486   -68.931169    38174.007 
   68200    298.27937   -1480.7017    439.04989    294.68672   -65.030062    38174.007 
   68300    308.57004   -1469.2215    407.44714    320.66804    429.84729    38174.007 
   68400    304.43907   -1506.8328     439.8573    296.95945    488.54741    38174.007 
   68500    297.17234   -1513.0804    403.85451    222.15296   -275.08256    38174.007 
   68600    307.22478   -1493.7505    426.46601    309.13095    -374.6547    38174.007 
   68700    296.97271   -1454.0401    408.24917    284.69359    366.19512    38174.007 
   68800    285.63067     -1499.36    450.98719    231.29759   -164.20544    38174.007 
   68900    301.51288    -1515.564     433.7813    269.04246    29.789681    38174.007 
   69000    306.67852   -1456.0912    410.21491    328.09184    -28.51223    38174.007 
   69100    301.71246   -1427.7468    441.65858    365.63106    179.26899    38174.007 
   69200    298.53541   -1445.2161    403.28896    295.55849    350.38421    38174.007 
   69300    295.73927    -1412.494    407.39437    319.85888    272.13517    38174.007 
   69400    307.73164   -1405.4147    435.64849    408.91998   -63.116449    38174.007 
   69500    300.20476   -1446.1296    439.08937    337.92435    166.44544    38174.007 
   69600    301.60401   -1469.1955    427.15817    309.19618    248.48833    38174.007 
   69700    294.61882   -1428.8169     450.8742    341.99606    532.31356    38174.007 
   69800    298.24171   -1441.4569     421.7745    316.48742    411.97546    38174.007 
   69900     296.5029   -1443.3841    438.92417     323.9198   -150.28171    38174.007 
   70000    301.32078   -1447.6849    423.65185    325.93148    28.966883    38174.007 
   70100    292.02004   -1463.2617    437.45512    282.48923   -124.49771    38174.007 
   70200    306.97651   -1429.7422    447.16996    392.73091    138.68437    38174.007 
   70300    300.57262   -1426.6407    419.20876    339.18068   -122.14488    38174.007 
   70400    293.90145   -1425.9216    410.80449    301.60765   -199.67819    38174.007 
   70500    292.81932   -1459.0008    429.92183     282.7977   -499.58746    38174.007 
   70600    298.45278   -1417.9552    463.44272      382.603    127.91445    38174.007 
   70700    279.29271   -1384.9923    439.05284     305.3359    186.56855    38174.007 
   70800    289.75218   -1388.8911    447.15018    356.39446   -546.78279    38174.007 
   70900    305.69027   -1411.3289    415.68285    373.89445   -521.43577    38174.007 
   71000    305.57936   -1404.3959    455.64374    420.29155   -422.45855    38174.007 
   71100    296.18842    -1366.666    456.31394    416.61871   -338.48417    38174.007 
   71200    306.39451   -1434.2295    441.26914    379.73531   -126.54058    38174.007 
   71300    299.00787   -1468.4629    448.30141    319.44083   -651.16814    38174.007 
   71400    297.40821   -1464.1768    428.17978    296.43866   -1007.8588    38174.007 
   71500    310.90164   -1449.0028    402.38955    346.27506   -836.01332    38174.007 
   71600    286.84514   -1450.0544    424.54817    259.60521   -568.12365    38174.007 
   71700     306.8603   -1471.2395    422.61592    326.15889    359.26268    38174.007 
   71800    302.01384   -1434.3291    411.48058      330.221    182.62116    38174.007 
   71900    300.86951   -1437.5866    427.98895    338.34515    419.83666    38174.007 
   72000    297.46354   -1457.3746    426.05139    301.36024    387.08197    38174.007 
   72100    297.57918   -1452.2091    427.84632    308.83881    713.76095    38174.007 
   72200    288.03206   -1387.3297    444.01242     347.1117    647.23989    38174.007 
   72300    298.30487    -1383.141    439.33819    392.65002     378.6235    38174.007 
   72400    303.73247   -1434.4312     485.2027    411.54082    1274.4479    38174.007 
   72500    301.01382   -1430.8678    427.52003    345.24157     1053.834    38174.007 
   72600    299.97721   -1417.9009    429.90125    355.94548    59.753613    38174.007 
   72700    297.42042   -1373.3176      420.797     379.9697     101.6489    38174.007 
   72800    302.50934   -1374.5208    420.73216    401.50083    181.05453    38174.007 
   72900    296.37597   -1357.9873    472.02271    441.84649    616.79452    38174.007 
   73000    302.33602   -1374.4282     443.2928    423.37764    377.10456    38174.007 
   73100    301.04263   -1384.6489    432.72108    396.79055   -69.199162    38174.007 
   73200    299.97482   -1410.6475    408.40212    341.68904   -287.28589    38174.007 
   73300    303.69679   -1420.7267     447.4737    387.35643    554.62667    38174.007 
   73400    295.11279   -1405.3742    442.51955    359.29717    988.15322    38174.007 
   73500     295.7386   -1420.5419    450.65532    355.06895    283.46409    38174.007 
   73600    304.65856   -1390.2098     453.0515    427.76003    909.35927    38174.007 
   73700    309.37352   -1380.9915    464.99242    470.04299    594.32375    38174.007 
   73800    300.53074   -1385.4643    469.48952    430.45027    527.44354    38174.007 
   73900    297.49701    -1419.999    426.34148    339.17601    104.95169    38174.007 
   74000    298.12404   -1431.4845     446.8445    351.00264    70.387416    38174.007 
   74100    299.01346   -1479.5696    441.86019    301.91794   -318.83248    38174.007 
   74200    299.72977   -1440.7556    431.80052    333.88149   -397.46856    38174.007 
   74300    301.70457   -1447.6673    449.28847    353.30513    104.43774    38174.007 
   74400    301.06596   -1474.4955    443.90558    318.23305   -214.38336    38174.007 
   74500    307.19129   -1461.0293    456.38605    371.62215    149.15063    38174.007 
   74600    287.95234   -1430.5734    414.24032     273.7387     430.0493    38174.007 
   74700    298.93135   -1437.0693    431.47306     333.6633   -92.357714    38174.007 
   74800    314.32706   -1381.3659    439.30141    466.17021     520.6017    38174.007 
   74900    300.27255   -1392.9701    454.22776    406.52598    258.91164    38174.007 
   75000    303.64891   -1391.8832    457.44383    425.95552   -150.63734    38174.007 
   75100    300.25777   -1434.5938    454.19747    364.80581   -96.170965    38174.007 
   75200    288.74754   -1427.8956    452.80828    318.54714    107.63743    38174.007 
   75300    308.73238   -1430.6362    443.11787    395.65137   -65.589397    38174.007 
   75400    289.97665   -1415.6113    467.06811    350.59788   -245.09549    38174.007 
   75500    289.40704   -1427.5534    449.39289    318.42858   -391.40644    38174.007 
   75600    304.03466   -1401.2363    452.22808    413.11497   -122.05338    38174.007 
   75700    297.95067   -1436.8816    449.74171    347.72601   -359.51583    38174.007 
   75800    291.60871   -1424.8796    447.89951    329.47288    115.05541    38174.007 
   75900    296.87332   -1436.8002    443.53039    336.76941   -193.90106    38174.007 
   76000    291.14212   -1425.6461    437.51805    316.23447   -299.14425    38174.007 
   76100    298.87061   -1444.7892    440.18353     334.3817   -809.97631    38174.007 
   76200    306.48841   -1470.3686    439.09856    341.84632   -709.61258    38174.007 
   76300    298.83341    -1467.171    434.07771    305.72746    -24.91428    38174.007 
   76400    293.50172   -1394.9924    464.15745    384.09893    589.21665    38174.007 
   76500    297.47449   -1413.8093    457.74698    376.67025    24.189505    38174.007 
   76600     305.0278   -1439.9637    458.99128    385.60016    38.767493    38174.007 
   76700    297.02183   -1415.9763    430.37492    345.10323   -491.68837    38174.007 
   76800    298.88268   -1450.6685     442.1898    330.56282   -312.62148    38174.007 
   76900    299.75482   -1469.1088    413.56129    287.40129   -728.80058    38174.007 
   77000    300.34093   -1422.4291     452.1599    375.30547   -732.66193    38174.007 
   77100    295.67316   -1424.0421    453.65613    354.27638   -461.30962    38174.007 
   77200    296.79445   -1442.1834    405.59876    293.10125    16.393288    38174.007 
   77300    306.27788    -1454.584     478.8439    396.43302     332.9384    38174.007 
   77400    299.57359   -1433.3179    435.74586    344.56488     104.8631    38174.007 
   77500    296.58017   -1460.7531    438.12399    306.09673     630.2994    38174.007 
   77600    295.65649   -1466.4559    446.19272    304.32447    448.45237    38174.007 
   77700    294.40241    -1475.462    445.78588    289.29306    522.61666    38174.007 
   77800    298.39116   -1390.5174    432.86017    379.18222     287.4831    38174.007 
   77900    297.64808   -1374.3628    454.32915    413.47665    2.8450916    38174.007 
   78000    296.88527   -1381.4042    454.38069    403.06925   -372.84119    38174.007 
   78100    308.77818    -1428.836    441.64809      396.187   -2.7048601    38174.007 
   78200    309.52652   -1408.7834    416.95402    394.89822   -213.82673    38174.007 
   78300    286.17685   -1401.8533     445.2202    325.48428   -520.55624    38174.007 
   78400    300.90422   -1410.7329    436.41073    373.77615   -169.07246    38174.007 
   78500    299.49788   -1434.2595    437.03213     344.5703   -117.16809    38174.007 
   78600    299.38561   -1466.8953    443.87122    318.27064     109.5674    38174.007 
   78700    292.55816   -1474.7696    410.53131    246.46835   -25.052291    38174.007 
   78800    308.48093    -1432.419    445.51404     395.1382    348.95583    38174.007 
   78900     305.5777   -1457.3401     442.2087    353.90483   -225.56741    38174.007 
   79000    300.97368   -1429.2662    425.95146     345.0947   -37.088696    38174.007 
   79100    298.24532   -1447.2711    461.37725    350.29215   -247.10984    38174.007 
   79200    287.27084   -1445.5029    425.40202    266.91774   -356.81404    38174.007 
   79300    301.52563   -1450.3616    444.97811    345.49875   -501.09557    38174.007 
   79400    294.03655   -1414.2342    438.18117    341.27703   -382.10085    38174.007 
   79500     309.3904   -1395.6972    459.94077    450.36129   -462.03159    38174.007 
   79600    287.56772    -1388.188    432.65259    332.81328   -612.75068    38174.007 
   79700     289.8829   -1414.4175    441.26957    325.57311   -161.55104    38174.007 
   79800    305.08308   -1431.7231    458.78464    393.88179    -151.0281    38174.007 
   79900    302.97222   -1454.6025    443.73368    346.49443    323.97492    38174.007 
   80000    288.46468   -1470.4807    474.34591    296.23241    656.72432    38174.007 
   80100    302.62932   -1485.8602    429.56559    299.53244    209.40104    38174.007 
   80200    293.68945   -1478.4483    451.04057    288.36727    179.38456    38174.007 
   80300    311.44579   -1472.1178    440.12014     363.3286    310.74664    38174.007 
   80400     308.6639   -1448.6577    455.32569    389.53088   -320.87667    38174.007 
   80500    291.06634   -1427.4823    462.08507     338.6258   -450.02998    38174.007 
   80600    298.18085   -1480.0518    433.37283    289.21826   -252.76403    38174.007 
   80700    304.21004   -1472.9736    463.04188    352.97715    360.50634    38174.007 
   80800    296.86975   -1487.2778     470.5778    313.32327   -341.88902    38174.007 
   80900    296.59268   -1520.7912    411.51795    219.50866    199.39702    38174.007 
   81000     318.6811   -1514.8907    405.91069    318.76153    -102.7873    38174.007 
   81100    301.60207   -1491.8879    437.21854    296.55535    801.37805    38174.007 
   81200    307.84609   -1483.4355    446.66884    342.43227    1189.9686    38174.007 
   81300    303.70518   -1479.6621     446.7431    327.72809     772.4024    38174.007 
   81400    295.76696   -1460.3245    452.15087    316.90897    673.57726    38174.007 
   81500    304.66201   -1436.4831    448.63304    377.08372     1058.014    38174.007 
   81600    306.17714   -1415.5065     453.4972    409.71251    655.10135    38174.007 
   81700    307.36013   -1438.6563    418.72057    357.08607    205.31629    38174.007 
   81800    309.63179   -1449.4832    443.40657    381.12261    345.89661    38174.007 
   81900    273.03378   -1391.2463    449.69747    281.68557    176.29675    38174.007 
   82000    293.44463   -1417.2439    445.72002     343.1543    64.154163    38174.007 
   82100    290.90995   -1458.5443    449.58465    294.36274    225.59149    38174.007 
   82200    297.98755   -1469.6837    423.54011    288.88762   -267.47841    38174.007 
   82300    308.11007   -1414.5392    422.68772    388.53019   -458.16218    38174.007 
   82400    300.22339   -1411.3783    442.37282    376.04258   -969.05226    38174.007 
   82500    299.78231   -1407.1158    421.83318    357.78933   -680.65706    38174.007 
   82600    303.56165    -1393.433    437.54567    404.11663   -322.41404    38174.007 
   82700    302.82042   -1431.0578    443.23469    368.86005   -54.147946    38174.007 
   82800    310.42787   -1449.0219    432.38499     374.1288    750.11205    38174.007 
   82900    319.21578   -1467.7564    418.92274    381.30338    475.11015    38174.007 
   83000     303.2794   -1411.9224    423.43929    370.25634   -16.002478    38174.007 
   83100    306.30325   -1420.0737    425.62215    377.83523   -264.79585    38174.007 
   83200    308.89722   -1408.7536    436.31821    411.47281   -481.58171    38174.007 
   83300    287.81556   -1374.2097    431.57738    346.82668   -574.03933    38174.007 
   83400    296.85458   -1416.7883    426.90272     340.0697   -144.47373    38174.007 
   83500    294.10293   -1497.2575    409.53993    229.90984   -673.73477    38174.007 
   83600    308.05009   -1464.3016    445.49657    361.30792   -475.88336    38174.007 
   83700    305.75132   -1461.0206    424.39863    333.19207    220.50559    38174.007 
   83800    300.26057   -1432.7181    453.68691    366.18342    91.357644    38174.007 
   83900     300.8862   -1430.4335    467.18808    384.77217    735.94401    38174.007 
   84000     301.7883   -1457.8821    433.91489    328.09193    274.78414    38174.007 
   84100    290.11879   -1457.9461    444.61674    286.44855    830.78831    38174.007 
   84200    301.35099   -1439.9018    444.00901     354.2071    322.88042    38174.007 
   84300    295.11431   -1432.1383     429.9742    319.99452    840.75204    38174.007 
   84400    299.75114   -1426.1103    466.10969    382.93166    325.89881    38174.007 
   84500    297.16497   -1415.8764     435.3017    350.77115     155.1898    38174.007 
   84600     295.7702   -1457.8167    441.44763    308.72804    288.91378    38174.007 
   84700    298.06253   -1457.6799    460.81102     338.4982    878.35978    38174.007 
   84800    293.59649   -1391.4539    447.96032     371.8649    513.43953    38174.007 
   84900    302.24266   -1414.1564    434.20408    374.14238    192.47152    38174.007 
   85000    304.50725   -1437.3891    467.44346    394.29477    616.33892    38174.007 
   85100    303.53007   -1463.6743    452.52516    348.71338    400.94488    38174.007 
   85200    299.66667   -1459.9533     459.4264    342.02694    -193.0311    38174.007 
   85300    307.57688    -1449.807    423.00692    351.19273    -551.3589    38174.007 
   85400    296.50308   -1454.2593    432.38465    306.50582   -113.62159    38174.007 
   85500    284.86744   -1477.0744    458.98512    258.16174   -330.46262    38174.007 
   85600    306.57121   -1440.1911    442.79388    376.09009   -335.97163    38174.007 
   85700     283.6357   -1452.2504    431.56847    250.05072   -493.28077    38174.007 
   85800    298.92723   -1433.8882    440.11853    345.47138   -331.52229    38174.007 
   85900     298.2996   -1431.2217    438.31251    343.51998    230.11723    38174.007 
   86000     305.4716   -1425.7271    455.06509    397.89884    324.33621    38174.007 
   86100    293.31024    -1438.284    438.18283     313.9749   -88.124554    38174.007 
   86200    288.14228   -1435.5823    442.58906     297.9295   -283.41432    38174.007 
   86300    299.13493   -1442.9523    429.78065    326.99995   -164.31475    38174.007 
   86400    303.36804   -1409.6829    458.05323    407.50693   -36.583505    38174.007 
   86500    289.69263   -1451.9579    447.60419    293.51491   -51.408198    38174.007 
   86600    291.58602   -1453.7374    459.60576    312.21971    257.97481    38174.007 
   86700    313.28697   -1481.5303    460.11661    382.16121   -167.83608    38174.007 
   86800    298.16486   -1479.8378    404.31502     260.3028    181.80547    38174.007 
   86900    298.12226   -1489.0143     434.5436    281.16399    166.24258    38174.007 
   87000    301.52353   -1450.2684    443.83409    344.43859    334.45286    38174.007 
   87100    294.66197   -1462.2663    434.01496    291.88068    357.22116    38174.007 
   87200    309.75744   -1448.7597    450.08921    389.09169   -444.12399    38174.007 
   87300    293.34907   -1439.2733    435.07888    310.05566   -582.31656    38174.007 
   87400    298.22858   -1483.4356    425.57338     278.2488   -217.36158    38174.007 
   87500     290.9249   -1454.1518      442.271    291.50855   -554.39126    38174.007 
   87600    292.57248   -1485.0627    421.73701    247.44515   -523.73433    38174.007 
   87700    307.33614    -1516.514    438.15331    298.55366   -205.89983    38174.007 
   87800    301.06318   -1499.8704     441.9506    290.89071   -670.10558    38174.007 
   87900    294.58529   -1495.6931    412.50118    236.59659   -665.90272    38174.007 
   88000    293.54151   -1518.0453    420.12646    217.19337   -378.24264    38174.007 
   88100     294.7212   -1510.2427    435.61389    245.76856    687.43413    38174.007 
   88200    306.15351   -1520.6743    446.94235    297.88398    470.82357    38174.007 
   88300    287.70197    -1478.461    423.77973    234.26887    522.79865    38174.007 
   88400    301.59614   -1521.8729    454.13492    283.46018    364.24287    38174.007 
   88500    311.22108   -1478.3485    433.24851    349.21944    146.78273    38174.007 
[...]
  984400    302.39625   -1497.2135    444.49334    302.06268   -165.68124    38174.007 
  984500     295.6988   -1524.2465    493.86072    294.39142     -194.977    38174.007 
  984600    308.31978   -1491.9216    476.71837    366.11791   -491.83259    38174.007 
  984700      299.762    -1514.899    490.97274    319.05469   -208.67091    38174.007 
  984800    298.60547   -1507.7817    463.43415    293.45196    114.48849    38174.007 
  984900    305.54685   -1494.7237    478.45951    352.63384     543.6187    38174.007 
  985000    296.68293    -1520.944    496.41927    304.66148   -85.418209    38174.007 
  985100    295.24835   -1554.3396    474.91566    243.33521    591.29218    38174.007 
  985200    292.20087   -1566.1567    488.09278    231.04197    476.31792    38174.007 
  985300    303.25536   -1500.9893    477.33971    334.98219    750.83919    38174.007 
  985400    305.56311    -1515.199    453.34544    307.11732     515.8672    38174.007 
  985500    293.94905   -1484.8913    473.31621    305.36296    10.107717    38174.007 
  985600    296.68828   -1497.1941    471.64979    303.66593   -151.04875    38174.007 
  985700    301.68598   -1490.9219    451.33134    312.01009    67.603136    38174.007 
  985800    299.07337   -1480.6092    480.56347    339.85007   -176.01073    38174.007 
  985900    300.39826   -1476.3595    483.81099      353.283   -196.53989    38174.007 
  986000     299.0835   -1479.1054    489.04834    349.88412   -3.3398952    38174.007 
  986100    308.83858   -1518.1324    459.42923    324.94228    116.00885    38174.007 
  986200     297.1603    -1550.103    468.22904    249.45096    109.40514    38174.007 
  986300    305.02928   -1514.7495    462.91623    314.74598   -932.04469    38174.007 
  986400    299.29345   -1539.8264    439.82967    240.88511   -405.56323    38174.007 
  986500    314.50442   -1516.4987    497.73595    390.26664   -76.777107    38174.007 
  986600    303.73823   -1543.4367    461.19016    278.54851   -55.230315    38174.007 
  986700    301.23921   -1557.9567    472.36304    264.00543    504.60349    38174.007 
  986800    296.89164   -1551.4566    441.25889    219.92364    786.80985    38174.007 
  986900    296.87723    -1540.532    470.55107    260.07578    67.573023    38174.007 
  987000    296.63871   -1508.2529     462.4082     283.1435   -257.53435    38174.007 
  987100    306.55171   -1533.0519    449.23259    289.58059    370.20972    38174.007 
  987200    292.23185   -1533.5891     453.8104    229.46603    209.82372    38174.007 
  987300    298.80797   -1585.8521    467.28506    220.13977    330.44537    38174.007 
  987400     296.9629   -1553.2748    478.00953    255.17528    256.33951    38174.007 
  987500    299.96774   -1577.1216    458.80991    225.59103    13.090918    38174.007 
  987600    310.04802   -1520.3475    440.55091    309.26737   -203.60545    38174.007 
  987700    291.26004   -1513.5772    483.30343    274.61711   -85.273048    38174.007 
  987800    314.68829   -1531.0731    469.43166    348.21171    52.007018    38174.007 
  987900    290.16452   -1543.4519    465.51467    222.04557   -29.234419    38174.007 
  988000    293.54184   -1551.9698    482.54862    245.69248    532.77857    38174.007 
  988100    293.51791   -1551.1842    497.92562    261.74789   -344.35105    38174.007 
  988200    309.78099   -1516.6299    462.24673    333.48447     786.0817    38174.007 
  988300    300.84165   -1513.9715    492.47996    326.32641    594.23397    38174.007 
  988400     305.1501   -1510.8284    479.78293    336.07506    622.83268    38174.007 
  988500    294.87448   -1518.9538    436.72171    238.85203    329.38509    38174.007 
  988600    307.24485   -1564.5007    464.24864    276.25325    -260.2868    38174.007 
  988700    293.06929   -1554.6401    466.07136    224.42784   -63.902588    38174.007 
  988800    287.44473   -1540.3035    478.33111    225.82525   -27.098775    38174.007 
  988900    305.23213   -1493.1773    483.70871    358.01941    98.665832    38174.007 
  989000    294.30988   -1532.5315    470.52818    256.55128   -168.06044    38174.007 
  989100    307.39958    -1504.332    504.02641    376.89297   -419.63925    38174.007 
  989200    304.65175   -1479.7204     472.2708    357.43818   -1117.1357    38174.007 
  989300     304.9818   -1534.4802    470.01604    301.90235   -165.57496    38174.007 
  989400    295.37569   -1485.7597    454.97703    292.54693    172.42779    38174.007 
  989500    305.05369   -1489.5085    480.84231    358.02234    462.52299    38174.007 
  989600    301.66908   -1480.7681    489.77737    360.53424    189.12138    38174.007 
  989700    309.23876   -1501.0178    450.74237    335.16293    388.99688    38174.007 
  989800    299.22922   -1513.3139    491.19113    318.47128    571.99389    38174.007 
  989900    299.45629   -1473.1787    477.87793    346.31057   -253.40796    38174.007 
  990000    289.55446   -1472.6759    472.73668    297.31036   -550.19483    38174.007 
  990100    302.35947   -1473.5035    475.15847    356.27306   -256.44763    38174.007 
  990200    300.94872   -1528.7399    477.20971    296.76754   -114.47718    38174.007 
  990300    299.53782   -1517.6534    471.11802    295.44122    113.77315    38174.007 
  990400    300.49102   -1446.4284    516.04545    415.86411   -374.38756    38174.007 
  990500    286.89966   -1468.8216     462.7755    279.30958    288.21616    38174.007 
  990600    306.00663     -1492.57    482.39102    360.77896    185.45925    38174.007 
  990700    295.98348   -1494.9932    458.93854    289.99797     49.56488    38174.007 
  990800    294.38213   -1507.9155    485.99613    296.95891   -641.24085    38174.007 
  990900     295.9152   -1532.0501    449.18708    242.88368   -433.27483    38174.007 
  991000    311.64802   -1534.1954    458.77909    320.81588    194.75144    38174.007 
  991100    299.58705    -1544.581    482.56401    280.18021    498.39096    38174.007 
  991200    290.53937   -1551.4516    489.54364    239.75416    765.20726    38174.007 
  991300    294.27974   -1563.7085    465.74804    220.45909    379.77192    38174.007 
  991400    303.73678   -1536.4516    456.91596    281.25296    480.69643    38174.007 
  991500    298.33596   -1547.7593    488.00596    276.83873    142.85571    38174.007 
  991600    293.28024   -1536.8402    448.96338    226.06482   -364.18401    38174.007 
  991700    310.25626   -1547.4998    466.91567    309.41282    31.617674    38174.007 
  991800     305.4375   -1539.9701    458.37328    286.81132    19.118148    38174.007 
  991900    297.95296   -1538.8003    454.32541    250.40134    161.22253    38174.007 
  992000     301.5507   -1577.6268    489.08394    262.45172    81.661583    38174.007 
  992100    306.41411   -1548.4549    466.93478    291.26333     220.8267    38174.007 
  992200    295.67609   -1517.8746    462.04191    268.84277   -98.232531    38174.007 
  992300    297.36042   -1553.4757    474.46979    253.21568    584.76617    38174.007 
  992400    296.48585   -1544.5213     483.9794    267.76142    429.28204    38174.007 
  992500    294.12155   -1528.0639    464.41618    254.06313    638.42606    38174.007 
  992600    308.49525   -1530.2529    464.41547    316.26986    335.18625    38174.007 
  992700    293.83784   -1546.6223    477.07077    246.88825   -302.41752    38174.007 
  992800    301.25686   -1532.3006    449.21791    266.59546   -87.639722    38174.007 
  992900    290.29936   -1539.4673     479.5663    240.68583   -291.59206    38174.007 
  993000    299.74508   -1490.3568    471.83698     324.3854    -453.4816    38174.007 
  993100    290.76024   -1469.4244    478.92765    312.15497   -938.02267    38174.007 
  993200    287.53562   -1479.2183    461.47437    270.46095   -878.41573    38174.007 
  993300    303.51304   -1520.3429    493.04056    332.48393   -663.09517    38174.007 
  993400      304.723   -1503.9078    485.70793    347.00718   -58.736652    38174.007 
  993500    306.24683   -1500.5371    456.51073    328.00761    50.514437    38174.007 
  993600    304.41398   -1505.8235    488.79603    346.79513    233.20472    38174.007 
  993700    304.49046   -1476.2424    462.19141     350.1142   -141.82105    38174.007 
  993800    309.34905   -1510.1982    452.05841    327.79267   -155.03593    38174.007 
  993900    297.97464   -1503.7236    479.69335    310.94313   -443.73097    38174.007 
  994000    288.90271   -1508.5886    496.53327    282.27433   -656.65006    38174.007 
  994100    303.35616   -1523.9051    473.98201    309.16031     -699.986    38174.007 
  994200    298.17955   -1534.6115    445.75787    247.03779   -997.49573    38174.007 
  994300    304.58671    -1522.785    489.68724     331.4987    -580.6284    38174.007 
  994400    296.81111   -1571.9494    472.58711    230.39823   -341.25914    38174.007 
  994500    301.29622   -1509.0564    475.58871    316.38686   -167.33121    38174.007 
  994600    283.92649   -1562.7939    468.06192    177.30339    45.964315    38174.007 
  994700    301.56872   -1511.6031    461.09939    300.57166    411.64268    38174.007 
  994800      296.893   -1569.7987    472.65441    232.98312   -94.832264    38174.007 
  994900     304.3591   -1559.2798    484.18427     288.4812    690.35099    38174.007 
  995000    304.76813   -1517.5611    471.31084    319.15899    692.67622    38174.007 
  995100    295.37889   -1553.2286    449.47408     219.5894    977.64698    38174.007 
  995200    296.23917   -1552.0425    474.97756    250.13323    1236.5761    38174.007 
  995300    307.87983   -1514.9365    464.42795    328.84156   -113.69859    38174.007 
  995400    297.68328   -1541.2961    445.14272    237.51461     321.3143    38174.007 
  995500    299.19031   -1581.5054    488.18865    247.10292    330.79756    38174.007 
  995600    285.06034   -1556.3832    476.67383    197.40587    128.92896    38174.007 
  995700     308.7858   -1538.8898    480.13581    324.65506    210.21187    38174.007 
  995800    302.31408   -1502.2155    486.78457    338.98379   -48.149323    38174.007 
  995900    300.90342   -1499.9097    459.12337    307.30837   -50.188874    38174.007 
  996000    295.62148   -1514.9676    482.21373    291.67693   -102.58418    38174.007 
  996100    298.70144   -1507.6344    498.72099    329.31606   -229.73772    38174.007 
  996200    304.53752   -1536.7219     467.8782    295.53237   -91.633472    38174.007 
  996300    295.51216   -1524.6796    458.90708     258.1685   -171.26146    38174.007 
  996400    295.28746     -1531.11    448.14845    239.97272   -211.59172    38174.007 
  996500    301.85104   -1517.8458    454.61256    289.10693    263.32538    38174.007 
  996600    306.01148   -1498.3713    469.78609     342.3944    525.43863    38174.007 
  996700    296.13527   -1516.1915    476.63899    287.18017    991.93359    38174.007 
  996800    302.22476   -1490.5061    494.66378     358.1722    438.70117    38174.007 
  996900    297.17785   -1526.7026    465.24088    269.94185  -0.47062263    38174.007 
  997000    292.92712   -1505.4279    482.15077    289.08247    289.60559    38174.007 
  997100    294.31918   -1512.2419    488.58194    294.93632   -332.85444    38174.007 
  997200    304.10063   -1462.2652    474.04297    374.19646   -322.00715    38174.007 
  997300    300.41808   -1485.2851    462.32357    322.95876   -521.42933    38174.007 
  997400    292.89141   -1501.4449    462.98903    273.74375   -241.82392    38174.007 
  997500    300.72295   -1528.3102    474.77067    293.74663    102.07146    38174.007 
  997600    303.69589   -1521.6484    486.59372    325.55078    143.79659    38174.007 
  997700    303.04584   -1562.3466    485.45019    280.79672   -195.32793    38174.007 
  997800    301.48903   -1519.8079    465.68124    296.59171   -20.256625    38174.007 
  997900    294.46975    -1530.265    475.27675    264.28263   -243.17965    38174.007 
  998000    310.29941   -1507.1954     473.8121    356.80693    126.40951    38174.007 
  998100    302.06788   -1485.7045    469.40614    337.01327    -408.1498    38174.007 
  998200    299.47068    -1515.276    486.81986    313.21963   -168.12788    38174.007 
  998300    291.19963   -1518.6546    476.29193    262.25752   -54.782827    38174.007 
  998400    292.11588   -1509.0098    478.62184    278.33717    144.39646    38174.007 
  998500    292.98944   -1487.3869    489.96181    315.21374   -59.919715    38174.007 
  998600    302.51066   -1540.3772    442.78845    257.70663    359.79484    38174.007 
  998700    305.09476   -1527.6546    466.38409    305.60211    425.51026    38174.007 
  998800    304.64556   -1501.9051    475.62016     338.5751    107.97824    38174.007 
  998900    301.90766   -1465.5684    486.64742    373.67295   -185.96911    38174.007 
  999000    293.88426   -1521.0716    473.24959    268.82574   -140.29758    38174.007 
  999100     305.0057   -1496.9906    479.71917    349.20213    202.87864    38174.007 
  999200    298.40293   -1523.7148    480.45859    293.63587    748.35896    38174.007 
  999300    297.39867    -1519.533    456.91024     269.7701    38.871997    38174.007 
  999400    297.79914   -1541.6364    491.26713    283.81778   -336.92661    38174.007 
  999500    295.05767   -1513.6917    453.75908    261.97221   -82.253086    38174.007 
  999600    290.64641   -1530.4438    452.41128    224.10915   -646.88677    38174.007 
  999700    307.13145   -1496.9287     469.9654    349.03397   -329.75051    38174.007 
  999800    304.93051   -1519.4919    467.55052     314.1953   -104.83646    38174.007 
  999900     296.4436   -1578.1057    441.45233     191.4607   -404.23563    38174.007 
 1000000    299.05061   -1550.8847    453.53658    242.44572   -50.753845    38174.007 
 1000100    303.49039   -1535.2203    462.71915    287.18364    41.161885    38174.007 
 1000200    301.61367   -1582.6926    456.00899     224.5931    509.41704    38174.007 
 1000300    300.17154   -1516.1806    471.39055    300.02569    555.95498    38174.007 
 1000400    286.51691   -1496.5293    463.96038    251.07192    822.96805    38174.007 
 1000500    308.71788   -1448.3543    453.14322    387.89367    872.34894    38174.007 
 1000600    301.04696   -1488.2364    498.03538    358.53672    615.53888    38174.007 
 1000700     303.9745   -1467.3914    461.05435    355.51656    29.246006    38174.007 
 1000800    301.43803   -1446.0692     468.0573    372.47797    638.05119    38174.007 
 1000900    308.07498   -1462.1519    484.22179    402.29435    99.228533    38174.007 
 1001000    291.17878   -1461.2069    481.66667    324.98657    79.572734    38174.007 
 1001100    297.39583   -1461.1554    469.29676    340.52154    277.89634    38174.007 
 1001200    291.02358   -1449.0747    473.71497    328.47176   -292.76323    38174.007 
 1001300    302.12543   -1455.3565    516.71857     414.9316   -31.160996    38174.007 
 1001400    300.99637   -1421.5903    454.21722    381.13807    135.87564    38174.007 
 1001500    307.33066   -1451.4765    499.90105    425.31435     625.3283    38174.007 
 1001600    303.02239     -1393.58    479.60808    443.61608   -69.635359    38174.007 
 1001700    310.63534    -1459.713    492.67341    424.65565    103.39391    38174.007 
 1001800     313.0662   -1529.7323    474.51613    347.36974    331.95578    38174.007 
 1001900    297.76664   -1499.6827    484.91357    319.27234     668.6889    38174.007 
 1002000    304.31603   -1483.0511    493.55238    373.88503   -121.81325    38174.007 
 1002100     298.3171   -1488.8994    474.62521    322.23343    77.957679    38174.007 
 1002200    299.44805   -1477.0064    472.62228    337.19029   -570.70161    38174.007 
 1002300    306.34207   -1443.7668    469.64837     398.3423   -527.92453    38174.007 
 1002400    303.64402   -1499.8812    468.94243    329.43421   -736.68029    38174.007 
 1002500    307.15672    -1459.582    488.85199    405.38047   -601.87687    38174.007 
 1002600    305.44174   -1497.3448    467.70152    338.78384   -746.50697    38174.007 
 1002700    300.30384   -1506.4296     474.5072    313.48612   -201.01562    38174.007 
 1002800    309.35541   -1498.3102     462.2124    349.86319   -794.68234    38174.007 
 1002900    298.16954   -1494.7226    485.27513    326.39903   -758.88646    38174.007 
 1003000    298.55902   -1532.1955     455.9772    261.37308     -53.1641    38174.007 
 1003100    302.70829   -1500.1481    493.72988    349.76258   -473.64957    38174.007 
 1003200    300.90367   -1539.1573     463.9709    272.90945   -408.32555    38174.007 
 1003300    295.39192   -1505.7487    456.39778     274.0514   -452.63226    38174.007 
 1003400    307.16158   -1504.5328    488.56564    360.16504   -196.59845    38174.007 
 1003500    290.33608   -1478.7331    462.98686    285.00508   -110.61559    38174.007 
 1003600    305.95395   -1483.3662    464.68156    352.03722    137.55822    38174.007 
 1003700    301.83039   -1496.4642    463.61935    319.40282    25.088068    38174.007 
 1003800    298.18533   -1502.9723    469.20267    302.14765   -201.82475    38174.007 
 1003900    305.14741    -1472.813     455.1339    349.42933   -743.45754    38174.007 
 1004000    311.00276   -1501.4318    468.94711    360.85663   -193.18215    38174.007 
 1004100    296.81861   -1520.0993    455.68699    265.38185   -363.50012    38174.007 
 1004200    307.69755   -1535.8109    491.25365    333.97619   -206.46053    38174.007 
 1004300     304.5632   -1572.5922     459.3028    251.20168    360.03423    38174.007 
 1004400    311.44541   -1527.1079     470.7903    339.00696    411.53812    38174.007 
 1004500    305.15381   -1487.3924    499.02342    378.76812    88.766124    38174.007 
 1004600    307.97641   -1515.2651     461.3427    325.86044     336.6442    38174.007 
 1004700     300.6203   -1548.0168    482.90493     281.7144    195.49776    38174.007 
 1004800    296.13224   -1555.1442    477.48416    249.05903    85.642025    38174.007 
 1004900    301.19726   -1480.9837    443.14215    311.56963    123.37163    38174.007 
 1005000    305.07283   -1540.4855    467.73834    294.02721    47.873712    38174.007 
 1005073    291.39773   -1518.2062    473.45047    260.75199   -690.60719    38174.007 
Loop time of 605.045 on 32 procs for 1000000 steps with 1504 atoms

Performance: 142.799 ns/day, 0.168 hours/ns, 1652.770 timesteps/s
100.0% CPU use with 32 MPI tasks x no OpenMP threads

MPI task timing breakdown:
Section |  min time  |  avg time  |  max time  |%varavg| %total
---------------------------------------------------------------
Pair    | 235.02     | 270.34     | 299.04     | 101.4 | 44.68
Bond    | 1.3318     | 1.4816     | 1.5877     |   5.4 |  0.24
Neigh   | 39.191     | 39.278     | 39.35      |   1.0 |  6.49
Comm    | 253.1      | 281.76     | 316.98     |  99.2 | 46.57
Output  | 0.39016    | 0.40828    | 0.83308    |  11.9 |  0.07
Modify  | 8.4997     | 8.6932     | 9.0097     |   4.8 |  1.44
Other   |            | 3.079      |            |       |  0.51

Nlocal:        47.0000 ave          81 max          21 min
Histogram: 5 3 3 5 1 3 6 2 3 1
Nghost:        1935.72 ave        2054 max        1826 min
Histogram: 6 5 3 2 0 0 5 4 3 4
Neighs:        5180.09 ave       10441 max        1662 min
Histogram: 7 4 2 3 4 3 4 2 2 1

Total # of neighbors = 165763
Ave neighs/atom = 110.21476
Ave special neighs/atom = 2.0026596
Neighbor list builds = 49720
Dangerous builds = 0

# Output the system volume
variable v equal vol
print 'The system volume is $v'
The system volume is 38174.0071902804

# Outputs
variable A equal xhi-xlo
variable B equal yhi-ylo
variable C equal zhi-zlo
variable D equal xy
variable E equal xz
variable F equal yz
print 'Lattice vectors'
Lattice vectors
print '$A 0 0'
33.6709924202134 0 0
print '$D $B 0'
0 33.6709924202134 0
print '$E $F $C'
0 0 33.6709924202134
Total wall time: 0:10:09
