LAMMPS data file
 1510 atoms
 1009 bonds
 513 angles
 13 dihedrals
 2 impropers
 7 atom types
 7 bond types
 4 angle types
 3 dihedral types
 1 improper types
 0 15 xlo xhi
 0 15 ylo yhi
 0 15 zlo zhi
 0 0 0 xy xz yz

# Atom types
#
# 1 C_3
# 2 N_2
# 3 C_2
# 4 O_2
# 5 O_3
# 6 H_
# 7 H__HB

# Bond Coeffs
#
# 1 C_3*C_2
# 2 C_3*O_3
# 3 C_3*H_
# 4 N_2*C_2
# 5 N_2*H__HB
# 6 C_2*O_2
# 7 O_3*H__HB

# Angle Coeffs
#
# 1 C_3
# 2 N_2
# 3 C_2
# 4 O_3

# Dihedral Coeffs
#
# 1 B1
# 2 A1
# 3 C1

# Inversion Coeffs
#
# 1 1

 Masses

 1 12.01
 2 14.01
 3 12.01
 4 16
 5 16
 6 1.01
 7 1.01

 Atoms # full

1 1 1 0 4.17974967212971 1.7516993183072 0.837483828630316
2 1 2 0 4.04381031463785 0.0434374991783795 2.58073729224121
3 1 3 0 4.50959307008546 0.414853448881804 1.36264481749492
4 1 4 0 5.21773465233801 -0.329236746142751 0.644033844051591
5 1 5 0 5.3909054900886 2.49412481351148 0.646326096129035
6 1 6 0 3.53062920087856 2.29347181772793 1.53078317427698
7 1 6 0 3.65669603812646 1.64069769074456 -0.115389423504736
8 1 7 0 3.5037687750456 0.703017750449338 3.04466920281449
9 1 7 0 5.54900837505619 3.76009426547946 0.165765762301102
10 1 7 0 4.23035482740811 -1.12434583482895 3.24002154017228
11 2 7 0 6.16390695489943 10.0902905517165 1.10443793004379
12 2 5 0 7.12390695489943 10.0902905517165 1.10443793004379
13 2 7 0 7.36390695489943 9.16029055171646 1.10443793004379
14 3 7 0 4.13741107841022 4.59829325013794 0.858147911494598
15 3 5 0 5.09741107841022 4.59829325013794 0.858147911494598
16 3 7 0 5.33741107841022 3.66829325013794 0.858147911494598
17 4 7 0 2.31798389970325 1.17756195873022 10.6060000578873
18 4 5 0 3.27798389970325 1.17756195873022 10.6060000578873
19 4 7 0 3.51798389970325 0.247561958730221 10.6060000578873
20 5 7 0 0.974476918783039 9.66769339906983 14.3374754686374
21 5 5 0 1.93447691878304 9.66769339906983 14.3374754686374
22 5 7 0 2.17447691878304 8.73769339906983 14.3374754686374
23 6 7 0 4.35571122609079 1.08349098282866 12.0868480810896
24 6 5 0 5.31571122609079 1.08349098282866 12.0868480810896
25 6 7 0 5.55571122609079 0.153490982828662 12.0868480810896
26 7 7 0 5.11523848559707 1.46907936124131 11.5356237720698
27 7 5 0 6.07523848559707 1.46907936124131 11.5356237720698
28 7 7 0 6.31523848559707 0.539079361241311 11.5356237720698
29 8 7 0 7.60937382278033 4.61576642043889 7.40749704069458
30 8 5 0 8.56937382278033 4.61576642043889 7.40749704069458
31 8 7 0 8.80937382278033 3.68576642043889 7.40749704069458
32 9 7 0 13.0820942767616 12.0612937344145 13.0019405786879
33 9 5 0 14.0420942767616 12.0612937344145 13.0019405786879
34 9 7 0 14.2820942767616 11.1312937344145 13.0019405786879
35 10 7 0 -0.190664797117934 6.16228648036718 6.06674088165164
36 10 5 0 0.769335202882066 6.16228648036718 6.06674088165164
37 10 7 0 1.00933520288207 5.23228648036718 6.06674088165164
38 11 7 0 8.11516038302332 13.5445282391179 11.2228925025556
39 11 5 0 9.07516038302332 13.5445282391179 11.2228925025556
40 11 7 0 9.31516038302332 12.6145282391179 11.2228925025556
41 12 7 0 7.16668952998705 15.2980986544304 0.360315941506997
42 12 5 0 8.12668952998705 15.2980986544304 0.360315941506997
43 12 7 0 8.36668952998705 14.3680986544304 0.360315941506997
44 13 7 0 0.149759868364781 2.37955101341009 12.5070507789496
45 13 5 0 1.10975986836478 2.37955101341009 12.5070507789496
46 13 7 0 1.34975986836478 1.44955101341009 12.5070507789496
47 14 7 0 3.26712243768387 5.56080401799642 13.2215542404447
48 14 5 0 4.22712243768387 5.56080401799642 13.2215542404447
49 14 7 0 4.46712243768387 4.63080401799642 13.2215542404447
50 15 7 0 13.5790352469496 0.462616145787761 4.5301555772312
51 15 5 0 14.5390352469496 0.462616145787761 4.5301555772312
52 15 7 0 14.7790352469496 -0.467383854212239 4.5301555772312
53 16 7 0 7.98465182815678 8.56480787432753 10.4385741509032
54 16 5 0 8.94465182815678 8.56480787432753 10.4385741509032
55 16 7 0 9.18465182815678 7.63480787432753 10.4385741509032
56 17 7 0 2.67735897956416 8.71405028313398 7.2051144449506
57 17 5 0 3.63735897956416 8.71405028313398 7.2051144449506
58 17 7 0 3.87735897956416 7.78405028313398 7.2051144449506
59 18 7 0 11.0426770120114 6.76581548917107 7.97123037278652
60 18 5 0 12.0026770120114 6.76581548917107 7.97123037278652
61 18 7 0 12.2426770120114 5.83581548917107 7.97123037278652
62 19 7 0 -0.125288337729871 0.469090188099071 13.7936582963448
63 19 5 0 0.834711662270129 0.469090188099071 13.7936582963448
64 19 7 0 1.07471166227013 -0.460909811900929 13.7936582963448
65 20 7 0 2.82232863639481 0.888701989725232 13.4438514208887
66 20 5 0 3.78232863639481 0.888701989725232 13.4438514208887
67 20 7 0 4.02232863639481 -0.0412980102747679 13.4438514208887
68 21 7 0 13.2451213120669 0.882476673405618 7.70207602414303
69 21 5 0 14.2051213120669 0.882476673405618 7.70207602414303
70 21 7 0 14.4451213120669 -0.0475233265943826 7.70207602414303
71 22 7 0 5.98079532894306 2.93065198621713 4.19543948024511
72 22 5 0 6.94079532894306 2.93065198621713 4.19543948024511
73 22 7 0 7.18079532894306 2.00065198621713 4.19543948024511
74 23 7 0 11.1525433072541 1.47917054052465 0.602891662856564
75 23 5 0 12.1125433072541 1.47917054052465 0.602891662856564
76 23 7 0 12.3525433072541 0.549170540524647 0.602891662856564
77 24 7 0 -0.531607275623828 12.2116219803598 7.21553776063956
78 24 5 0 0.428392724376172 12.2116219803598 7.21553776063956
79 24 7 0 0.668392724376172 11.2816219803598 7.21553776063956
80 25 7 0 10.8237725011725 7.40957872983068 10.7141718117055
81 25 5 0 11.7837725011725 7.40957872983068 10.7141718117055
82 25 7 0 12.0237725011725 6.47957872983068 10.7141718117055
83 26 7 0 6.49218461520039 10.3490066194814 6.11364511074498
84 26 5 0 7.45218461520039 10.3490066194814 6.11364511074498
85 26 7 0 7.69218461520039 9.41900661948137 6.11364511074498
86 27 7 0 9.24639904333278 0.899420865289867 9.69410350662656
87 27 5 0 10.2063990433328 0.899420865289867 9.69410350662656
88 27 7 0 10.4463990433328 -0.0305791347101331 9.69410350662656
89 28 7 0 9.75846787143499 6.93045372184366 12.0383839379065
90 28 5 0 10.718467871435 6.93045372184366 12.0383839379065
91 28 7 0 10.958467871435 6.00045372184366 12.0383839379065
92 29 7 0 3.17783040736802 2.83998399315402 6.48862536996603
93 29 5 0 4.13783040736802 2.83998399315402 6.48862536996603
94 29 7 0 4.37783040736802 1.90998399315402 6.48862536996603
95 30 7 0 2.46819868261926 7.55523065960966 4.03844512416981
96 30 5 0 3.42819868261926 7.55523065960966 4.03844512416981
97 30 7 0 3.66819868261926 6.62523065960966 4.03844512416981
98 31 7 0 12.1469836081099 13.3931239069812 5.21961223916151
99 31 5 0 13.1069836081099 13.3931239069812 5.21961223916151
100 31 7 0 13.3469836081099 12.4631239069812 5.21961223916151
101 32 7 0 7.18033345925622 13.4082714309357 4.90254112053663
102 32 5 0 8.14033345925622 13.4082714309357 4.90254112053663
103 32 7 0 8.38033345925622 12.4782714309357 4.90254112053663
104 33 7 0 6.74549371629953 12.6157957726996 12.0681485126261
105 33 5 0 7.70549371629953 12.6157957726996 12.0681485126261
106 33 7 0 7.94549371629953 11.6857957726996 12.0681485126261
107 34 7 0 1.21836546270177 1.70379549422301 9.5072339870967
108 34 5 0 2.17836546270177 1.70379549422301 9.5072339870967
109 34 7 0 2.41836546270177 0.773795494223013 9.5072339870967
110 35 7 0 8.04120596425608 9.10685198771767 11.668610307388
111 35 5 0 9.00120596425608 9.10685198771767 11.668610307388
112 35 7 0 9.24120596425608 8.17685198771767 11.668610307388
113 36 7 0 8.0077310108766 8.8332000250835 12.177047082223
114 36 5 0 8.9677310108766 8.8332000250835 12.177047082223
115 36 7 0 9.2077310108766 7.9032000250835 12.177047082223
116 37 7 0 9.5802368810121 8.46763511578552 8.35433424683288
117 37 5 0 10.5402368810121 8.46763511578552 8.35433424683288
118 37 7 0 10.7802368810121 7.53763511578552 8.35433424683288
119 38 7 0 5.76816107888706 8.65651469951496 6.31382433464751
120 38 5 0 6.72816107888706 8.65651469951496 6.31382433464751
121 38 7 0 6.96816107888706 7.72651469951496 6.31382433464751
122 39 7 0 2.99880689752288 13.6335470647924 4.88568499451503
123 39 5 0 3.95880689752288 13.6335470647924 4.88568499451503
124 39 7 0 4.19880689752288 12.7035470647924 4.88568499451503
125 40 7 0 0.0234724539052695 14.4631797207426 14.7396459337324
126 40 5 0 0.983472453905269 14.4631797207426 14.7396459337324
127 40 7 0 1.22347245390527 13.5331797207426 14.7396459337324
128 41 7 0 6.51433158709668 5.40166882256977 0.258453654823825
129 41 5 0 7.47433158709668 5.40166882256977 0.258453654823825
130 41 7 0 7.71433158709668 4.47166882256977 0.258453654823825
131 42 7 0 10.09273955293 11.7196685149707 5.18856099341065
132 42 5 0 11.05273955293 11.7196685149707 5.18856099341065
133 42 7 0 11.29273955293 10.7896685149707 5.18856099341065
134 43 7 0 5.2288781390246 3.65119996638037 9.77191072655842
135 43 5 0 6.1888781390246 3.65119996638037 9.77191072655842
136 43 7 0 6.4288781390246 2.72119996638037 9.77191072655842
137 44 7 0 6.33767477746122 12.4168921871483 10.4800902935676
138 44 5 0 7.29767477746122 12.4168921871483 10.4800902935676
139 44 7 0 7.53767477746122 11.4868921871483 10.4800902935676
140 45 7 0 7.53520649319515 13.6311392548401 4.4435897609219
141 45 5 0 8.49520649319515 13.6311392548401 4.4435897609219
142 45 7 0 8.73520649319515 12.7011392548401 4.4435897609219
143 46 7 0 2.5640072514955 1.00270129315555 0.829175444087014
144 46 5 0 3.5240072514955 1.00270129315555 0.829175444087014
145 46 7 0 3.7640072514955 0.0727012931555509 0.829175444087014
146 47 7 0 9.09285559013486 3.5068893611338 3.6791488097515
147 47 5 0 10.0528555901349 3.5068893611338 3.6791488097515
148 47 7 0 10.2928555901349 2.5768893611338 3.6791488097515
149 48 7 0 10.8583043112606 9.83779201907106 11.5914465696551
150 48 5 0 11.8183043112606 9.83779201907106 11.5914465696551
151 48 7 0 12.0583043112606 8.90779201907106 11.5914465696551
152 49 7 0 3.19151642776094 11.661076986175 0.133628522744402
153 49 5 0 4.15151642776094 11.661076986175 0.133628522744402
154 49 7 0 4.39151642776094 10.731076986175 0.133628522744402
155 50 7 0 5.77607551284134 9.67585997464135 6.47997700609267
156 50 5 0 6.73607551284134 9.67585997464135 6.47997700609267
157 50 7 0 6.97607551284134 8.74585997464135 6.47997700609267
158 51 7 0 10.2264578283951 11.9145142849907 8.61758965300396
159 51 5 0 11.1864578283951 11.9145142849907 8.61758965300396
160 51 7 0 11.4264578283951 10.9845142849907 8.61758965300396
161 52 7 0 11.0787936898135 12.7884696975257 8.15161886508577
162 52 5 0 12.0387936898135 12.7884696975257 8.15161886508577
163 52 7 0 12.2787936898135 11.8584696975257 8.15161886508577
164 53 7 0 13.0863331239391 11.0114404865913 2.58938218234107
165 53 5 0 14.0463331239391 11.0114404865913 2.58938218234107
166 53 7 0 14.2863331239391 10.0814404865913 2.58938218234107
167 54 7 0 3.15579410802573 14.5419335858338 2.38345067482442
168 54 5 0 4.11579410802573 14.5419335858338 2.38345067482442
169 54 7 0 4.35579410802573 13.6119335858338 2.38345067482442
170 55 7 0 6.10445716462098 10.613757765796 6.68632321874611
171 55 5 0 7.06445716462098 10.613757765796 6.68632321874611
172 55 7 0 7.30445716462098 9.68375776579604 6.68632321874611
173 56 7 0 12.4213735484239 7.62457588030025 12.0966090273578
174 56 5 0 13.3813735484239 7.62457588030025 12.0966090273578
175 56 7 0 13.6213735484239 6.69457588030025 12.0966090273578
176 57 7 0 1.1010092454683 4.57439887145534 0.817351215519011
177 57 5 0 2.0610092454683 4.57439887145534 0.817351215519011
178 57 7 0 2.3010092454683 3.64439887145534 0.817351215519011
179 58 7 0 4.32495513858274 0.482160987276584 1.7014876473695
180 58 5 0 5.28495513858274 0.482160987276584 1.7014876473695
181 58 7 0 5.52495513858274 -0.447839012723416 1.7014876473695
182 59 7 0 9.27124459689483 5.4514014340844 1.09844576334581
183 59 5 0 10.2312445968948 5.4514014340844 1.09844576334581
184 59 7 0 10.4712445968948 4.5214014340844 1.09844576334581
185 60 7 0 8.77545648414642 6.07632808661088 10.4007234564051
186 60 5 0 9.73545648414642 6.07632808661088 10.4007234564051
187 60 7 0 9.97545648414642 5.14632808661088 10.4007234564051
188 61 7 0 5.57311343771406 4.90110655589029 5.19559232750908
189 61 5 0 6.53311343771406 4.90110655589029 5.19559232750908
190 61 7 0 6.77311343771406 3.97110655589029 5.19559232750908
191 62 7 0 8.30182869147509 7.82143131987192 6.6150461230427
192 62 5 0 9.26182869147509 7.82143131987192 6.6150461230427
193 62 7 0 9.50182869147509 6.89143131987192 6.6150461230427
194 63 7 0 10.2420674850885 10.1836484127585 3.50494065089151
195 63 5 0 11.2020674850885 10.1836484127585 3.50494065089151
196 63 7 0 11.4420674850885 9.25364841275849 3.50494065089151
197 64 7 0 11.4003278750181 2.36969435628504 10.1013837300707
198 64 5 0 12.3603278750181 2.36969435628504 10.1013837300707
199 64 7 0 12.6003278750181 1.43969435628504 10.1013837300707
200 65 7 0 2.37313952922821 6.11505046760663 9.13941783481278
201 65 5 0 3.33313952922821 6.11505046760663 9.13941783481278
202 65 7 0 3.57313952922821 5.18505046760663 9.13941783481278
203 66 7 0 13.6879269992653 10.0101391893718 10.1441554084886
204 66 5 0 14.6479269992653 10.0101391893718 10.1441554084886
205 66 7 0 14.8879269992653 9.08013918937184 10.1441554084886
206 67 7 0 12.8661373040825 4.11508417030796 11.0302855633199
207 67 5 0 13.8261373040825 4.11508417030796 11.0302855633199
208 67 7 0 14.0661373040825 3.18508417030796 11.0302855633199
209 68 7 0 1.14430982197635 3.26296075870283 3.69846511166543
210 68 5 0 2.10430982197635 3.26296075870283 3.69846511166543
211 68 7 0 2.34430982197635 2.33296075870283 3.69846511166543
212 69 7 0 0.250251011895016 12.9990062959865 1.96108591044322
213 69 5 0 1.21025101189502 12.9990062959865 1.96108591044322
214 69 7 0 1.45025101189502 12.0690062959865 1.96108591044322
215 70 7 0 10.8446299696527 11.9259275453538 13.7106365407817
216 70 5 0 11.8046299696527 11.9259275453538 13.7106365407817
217 70 7 0 12.0446299696527 10.9959275453538 13.7106365407817
218 71 7 0 1.50772726672702 1.97201803367585 0.342505755834281
219 71 5 0 2.46772726672702 1.97201803367585 0.342505755834281
220 71 7 0 2.70772726672702 1.04201803367585 0.342505755834281
221 72 7 0 3.99538803074509 4.84250007936731 2.38327541970648
222 72 5 0 4.95538803074509 4.84250007936731 2.38327541970648
223 72 7 0 5.19538803074509 3.91250007936731 2.38327541970648
224 73 7 0 8.46829080532305 4.87511954427697 10.0937202712521
225 73 5 0 9.42829080532305 4.87511954427697 10.0937202712521
226 73 7 0 9.66829080532305 3.94511954427697 10.0937202712521
227 74 7 0 7.22211275177076 11.2844891198352 12.0586312108207
228 74 5 0 8.18211275177076 11.2844891198352 12.0586312108207
229 74 7 0 8.42211275177077 10.3544891198352 12.0586312108207
230 75 7 0 6.40878019083291 6.92493007559329 2.61308710207231
231 75 5 0 7.36878019083291 6.92493007559329 2.61308710207231
232 75 7 0 7.60878019083291 5.99493007559329 2.61308710207231
233 76 7 0 10.1648960010801 5.87954240542836 0.560160063905641
234 76 5 0 11.1248960010801 5.87954240542836 0.560160063905641
235 76 7 0 11.3648960010801 4.94954240542836 0.560160063905641
236 77 7 0 10.710155831622 5.50885598565452 9.04673810116947
237 77 5 0 11.670155831622 5.50885598565452 9.04673810116947
238 77 7 0 11.910155831622 4.57885598565452 9.04673810116947
239 78 7 0 12.1497067906614 14.9689356730692 8.93268790910952
240 78 5 0 13.1097067906614 14.9689356730692 8.93268790910952
241 78 7 0 13.3497067906614 14.0389356730692 8.93268790910952
242 79 7 0 5.26620509030297 3.70994688518345 7.54551514517516
243 79 5 0 6.22620509030297 3.70994688518345 7.54551514517516
244 79 7 0 6.46620509030297 2.77994688518345 7.54551514517516
245 80 7 0 1.58237351031974 5.78337458119728 6.21650435496122
246 80 5 0 2.54237351031974 5.78337458119728 6.21650435496122
247 80 7 0 2.78237351031974 4.85337458119728 6.21650435496122
248 81 7 0 9.90829177128151 7.36610392149538 7.84526969888248
249 81 5 0 10.8682917712815 7.36610392149538 7.84526969888248
250 81 7 0 11.1082917712815 6.43610392149538 7.84526969888248
251 82 7 0 -0.515807587215677 5.48535901395604 0.784423614386469
252 82 5 0 0.444192412784323 5.48535901395604 0.784423614386469
253 82 7 0 0.684192412784323 4.55535901395604 0.784423614386469
254 83 7 0 13.3210682803486 6.63258462836035 12.4854673817754
255 83 5 0 14.2810682803486 6.63258462836035 12.4854673817754
256 83 7 0 14.5210682803486 5.70258462836035 12.4854673817754
257 84 7 0 1.50831285791472 9.42018800805323 2.21879552816972
258 84 5 0 2.46831285791472 9.42018800805323 2.21879552816972
259 84 7 0 2.70831285791472 8.49018800805323 2.21879552816972
260 85 7 0 6.06445436409675 2.96557088656351 11.5602777607273
261 85 5 0 7.02445436409675 2.96557088656351 11.5602777607273
262 85 7 0 7.26445436409675 2.03557088656351 11.5602777607273
263 86 7 0 13.9962771248259 11.5236226380244 0.950148194096982
264 86 5 0 14.9562771248259 11.5236226380244 0.950148194096982
265 86 7 0 15.1962771248259 10.5936226380244 0.950148194096982
266 87 7 0 8.17596719644032 11.2287725768425 0.016143472166732
267 87 5 0 9.13596719644032 11.2287725768425 0.016143472166732
268 87 7 0 9.37596719644032 10.2987725768425 0.016143472166732
269 88 7 0 9.33347391357645 13.9856346106995 10.9441061702091
270 88 5 0 10.2934739135765 13.9856346106995 10.9441061702091
271 88 7 0 10.5334739135765 13.0556346106995 10.9441061702091
272 89 7 0 4.58177895678207 8.02931979921646 1.71079008257948
273 89 5 0 5.54177895678207 8.02931979921646 1.71079008257948
274 89 7 0 5.78177895678207 7.09931979921646 1.71079008257948
275 90 7 0 8.38665505332872 14.6190741615742 8.64790821215138
276 90 5 0 9.34665505332872 14.6190741615742 8.64790821215138
277 90 7 0 9.58665505332872 13.6890741615742 8.64790821215138
278 91 7 0 3.02313925509341 14.9565495007578 3.6332167731598
279 91 5 0 3.98313925509341 14.9565495007578 3.6332167731598
280 91 7 0 4.22313925509341 14.0265495007578 3.6332167731598
281 92 7 0 1.05517698146403 13.6561900043767 14.1948864259757
282 92 5 0 2.01517698146403 13.6561900043767 14.1948864259757
283 92 7 0 2.25517698146403 12.7261900043767 14.1948864259757
284 93 7 0 12.7057441211957 9.09889230894856 0.619176017353311
285 93 5 0 13.6657441211957 9.09889230894856 0.619176017353311
286 93 7 0 13.9057441211957 8.16889230894856 0.619176017353311
287 94 7 0 1.73643986854702 3.0039808530733 11.475997423986
288 94 5 0 2.69643986854702 3.0039808530733 11.475997423986
289 94 7 0 2.93643986854702 2.0739808530733 11.475997423986
290 95 7 0 9.65180115818046 13.493024461614 12.9343758139294
291 95 5 0 10.6118011581805 13.493024461614 12.9343758139294
292 95 7 0 10.8518011581805 12.563024461614 12.9343758139294
293 96 7 0 6.41831081287935 13.0434008016624 3.44356363406405
294 96 5 0 7.37831081287935 13.0434008016624 3.44356363406405
295 96 7 0 7.61831081287935 12.1134008016624 3.44356363406405
296 97 7 0 10.1560339196306 4.06932703260332 13.2436180708464
297 97 5 0 11.1160339196306 4.06932703260332 13.2436180708464
298 97 7 0 11.3560339196306 3.13932703260332 13.2436180708464
299 98 7 0 13.6620170732215 0.8918326480221 9.17026242474094
300 98 5 0 14.6220170732215 0.8918326480221 9.17026242474094
301 98 7 0 14.8620170732215 -0.0381673519778997 9.17026242474094
302 99 7 0 1.1140990645811 3.51654613082297 0.662881404859945
303 99 5 0 2.0740990645811 3.51654613082297 0.662881404859945
304 99 7 0 2.3140990645811 2.58654613082297 0.662881404859945
305 100 7 0 8.71411559332162 8.13861392130144 13.4737875242718
306 100 5 0 9.67411559332162 8.13861392130144 13.4737875242718
307 100 7 0 9.91411559332162 7.20861392130144 13.4737875242718
308 101 7 0 0.242630237918347 0.31655316747725 11.4929257531185
309 101 5 0 1.20263023791835 0.31655316747725 11.4929257531185
310 101 7 0 1.44263023791835 -0.61344683252275 11.4929257531185
311 102 7 0 0.973310231203213 2.81083733233623 4.13977231713943
312 102 5 0 1.93331023120321 2.81083733233623 4.13977231713943
313 102 7 0 2.17331023120321 1.88083733233623 4.13977231713943
314 103 7 0 -0.519375309376046 14.0849676161911 11.5492210909724
315 103 5 0 0.440624690623954 14.0849676161911 11.5492210909724
316 103 7 0 0.680624690623954 13.1549676161911 11.5492210909724
317 104 7 0 6.19625422798097 15.1664312036615 9.03700861148536
318 104 5 0 7.15625422798097 15.1664312036615 9.03700861148536
319 104 7 0 7.39625422798097 14.2364312036615 9.03700861148536
320 105 7 0 1.01055175691843 1.57136359991506 6.74577411264181
321 105 5 0 1.97055175691843 1.57136359991506 6.74577411264181
322 105 7 0 2.21055175691843 0.641363599915057 6.74577411264181
323 106 7 0 12.3642123355251 11.0816033130419 4.66365403379314
324 106 5 0 13.3242123355251 11.0816033130419 4.66365403379314
325 106 7 0 13.5642123355251 10.1516033130419 4.66365403379314
326 107 7 0 8.40369879079051 15.058961776495 7.92873994563706
327 107 5 0 9.36369879079051 15.058961776495 7.92873994563706
328 107 7 0 9.60369879079051 14.128961776495 7.92873994563706
329 108 7 0 2.96888168013655 11.6090940222517 7.35552566125989
330 108 5 0 3.92888168013655 11.6090940222517 7.35552566125989
331 108 7 0 4.16888168013655 10.6790940222517 7.35552566125989
332 109 7 0 10.2600215112045 13.6065551817324 9.64720673742704
333 109 5 0 11.2200215112045 13.6065551817324 9.64720673742704
334 109 7 0 11.4600215112045 12.6765551817324 9.64720673742704
335 110 7 0 7.10518502441235 5.66951388650574 8.60583026544191
336 110 5 0 8.06518502441235 5.66951388650574 8.60583026544191
337 110 7 0 8.30518502441235 4.73951388650574 8.60583026544191
338 111 7 0 4.36412568946369 5.12137458933517 13.1730344030075
339 111 5 0 5.32412568946369 5.12137458933517 13.1730344030075
340 111 7 0 5.56412568946369 4.19137458933517 13.1730344030075
341 112 7 0 12.1350213749986 4.54216484137811 6.65424424340017
342 112 5 0 13.0950213749986 4.54216484137811 6.65424424340017
343 112 7 0 13.3350213749986 3.61216484137811 6.65424424340017
344 113 7 0 8.72845679914579 3.77497590770014 10.9390111465473
345 113 5 0 9.68845679914579 3.77497590770014 10.9390111465473
346 113 7 0 9.92845679914579 2.84497590770014 10.9390111465473
347 114 7 0 0.601821177843958 2.61713000637479 2.66461862716824
348 114 5 0 1.56182117784396 2.61713000637479 2.66461862716824
349 114 7 0 1.80182117784396 1.68713000637479 2.66461862716824
350 115 7 0 8.33216175480746 6.36936256819405 3.78404303686693
351 115 5 0 9.29216175480746 6.36936256819405 3.78404303686693
352 115 7 0 9.53216175480746 5.43936256819405 3.78404303686693
353 116 7 0 11.5831847993843 6.70891040977091 14.6880606387276
354 116 5 0 12.5431847993843 6.70891040977091 14.6880606387276
355 116 7 0 12.7831847993843 5.77891040977091 14.6880606387276
356 117 7 0 9.68163618279621 7.49837386695668 5.39235045318492
357 117 5 0 10.6416361827962 7.49837386695668 5.39235045318492
358 117 7 0 10.8816361827962 6.56837386695668 5.39235045318492
359 118 7 0 3.7125773161836 6.99002804974094 7.27293109288439
360 118 5 0 4.6725773161836 6.99002804974094 7.27293109288439
361 118 7 0 4.9125773161836 6.06002804974094 7.27293109288439
362 119 7 0 1.22605245022103 6.25545569620095 14.9332407745533
363 119 5 0 2.18605245022103 6.25545569620095 14.9332407745533
364 119 7 0 2.42605245022103 5.32545569620095 14.9332407745533
365 120 7 0 4.44161808161996 8.18411140161566 1.75770400674082
366 120 5 0 5.40161808161996 8.18411140161566 1.75770400674082
367 120 7 0 5.64161808161996 7.25411140161566 1.75770400674082
368 121 7 0 7.77746818304993 13.2362326587923 12.7345422282815
369 121 5 0 8.73746818304993 13.2362326587923 12.7345422282815
370 121 7 0 8.97746818304993 12.3062326587923 12.7345422282815
371 122 7 0 13.5208466013148 3.58583604143001 1.63722497876734
372 122 5 0 14.4808466013148 3.58583604143001 1.63722497876734
373 122 7 0 14.7208466013148 2.65583604143001 1.63722497876734
374 123 7 0 9.6988729589805 6.68868104269728 13.5253450507298
375 123 5 0 10.6588729589805 6.68868104269728 13.5253450507298
376 123 7 0 10.8988729589805 5.75868104269728 13.5253450507298
377 124 7 0 7.60440705271438 7.90025810402818 3.65426700445823
378 124 5 0 8.56440705271438 7.90025810402818 3.65426700445823
379 124 7 0 8.80440705271438 6.97025810402818 3.65426700445823
380 125 7 0 0.527055167332292 5.95050752320327 11.4388156612404
381 125 5 0 1.48705516733229 5.95050752320327 11.4388156612404
382 125 7 0 1.72705516733229 5.02050752320327 11.4388156612404
383 126 7 0 13.1216838110425 0.570701670777053 9.63832727749832
384 126 5 0 14.0816838110425 0.570701670777053 9.63832727749832
385 126 7 0 14.3216838110425 -0.359298329222947 9.63832727749832
386 127 7 0 5.20350139981136 0.426011578356847 11.4023857552093
387 127 5 0 6.16350139981136 0.426011578356847 11.4023857552093
388 127 7 0 6.40350139981136 -0.503988421643153 11.4023857552093
389 128 7 0 14.0720659405645 0.639706788761541 9.37315044924617
390 128 5 0 15.0320659405645 0.639706788761541 9.37315044924617
391 128 7 0 15.2720659405645 -0.290293211238459 9.37315044924617
392 129 7 0 9.00532287589274 6.77049172850326 4.9434170324821
393 129 5 0 9.96532287589274 6.77049172850326 4.9434170324821
394 129 7 0 10.2053228758927 5.84049172850326 4.9434170324821
395 130 7 0 11.5325752766524 4.55695643829182 7.76898699696176
396 130 5 0 12.4925752766524 4.55695643829182 7.76898699696176
397 130 7 0 12.7325752766524 3.62695643829182 7.76898699696176
398 131 7 0 9.65796367309056 2.97080322326161 8.5384006658569
399 131 5 0 10.6179636730906 2.97080322326161 8.5384006658569
400 131 7 0 10.8579636730906 2.04080322326161 8.5384006658569
401 132 7 0 8.29754398131743 15.037179997135 14.1714455466717
402 132 5 0 9.25754398131743 15.037179997135 14.1714455466717
403 132 7 0 9.49754398131743 14.107179997135 14.1714455466717
404 133 7 0 2.74780820516869 1.04037450783886 0.723724801791832
405 133 5 0 3.70780820516869 1.04037450783886 0.723724801791832
406 133 7 0 3.94780820516869 0.11037450783886 0.723724801791832
407 134 7 0 7.17313340792432 12.2760276721697 13.3985890459735
408 134 5 0 8.13313340792432 12.2760276721697 13.3985890459735
409 134 7 0 8.37313340792432 11.3460276721697 13.3985890459735
410 135 7 0 10.9398591953516 4.65163179481402 8.12276779557578
411 135 5 0 11.8998591953516 4.65163179481402 8.12276779557578
412 135 7 0 12.1398591953516 3.72163179481402 8.12276779557578
413 136 7 0 3.29931232656352 4.20331629499793 9.47600890416652
414 136 5 0 4.25931232656352 4.20331629499793 9.47600890416652
415 136 7 0 4.49931232656352 3.27331629499793 9.47600890416652
416 137 7 0 2.81297899710014 9.85567849403247 8.34603529656306
417 137 5 0 3.77297899710014 9.85567849403247 8.34603529656306
418 137 7 0 4.01297899710015 8.92567849403247 8.34603529656306
419 138 7 0 6.75122388565913 13.0120076930057 9.48938473127782
420 138 5 0 7.71122388565913 13.0120076930057 9.48938473127782
421 138 7 0 7.95122388565913 12.0820076930057 9.48938473127782
422 139 7 0 11.3976362014376 8.86622145463713 9.57940926658921
423 139 5 0 12.3576362014376 8.86622145463713 9.57940926658921
424 139 7 0 12.5976362014376 7.93622145463713 9.57940926658921
425 140 7 0 9.5458006909769 9.10151056404226 12.8587869205512
426 140 5 0 10.5058006909769 9.10151056404226 12.8587869205512
427 140 7 0 10.7458006909769 8.17151056404226 12.8587869205512
428 141 7 0 13.5612730825972 5.07214505266398 8.22180100833066
429 141 5 0 14.5212730825972 5.07214505266398 8.22180100833066
430 141 7 0 14.7612730825972 4.14214505266398 8.22180100833066
431 142 7 0 -0.46841573392041 4.58948864060454 9.39258709084243
432 142 5 0 0.49158426607959 4.58948864060454 9.39258709084243
433 142 7 0 0.73158426607959 3.65948864060454 9.39258709084243
434 143 7 0 9.21764487211592 13.208818065878 13.9194855547976
435 143 5 0 10.1776448721159 13.208818065878 13.9194855547976
436 143 7 0 10.4176448721159 12.278818065878 13.9194855547976
437 144 7 0 8.02817844713107 15.2283664377779 1.93052761489525
438 144 5 0 8.98817844713107 15.2283664377779 1.93052761489525
439 144 7 0 9.22817844713107 14.2983664377779 1.93052761489525
440 145 7 0 12.1853582937922 14.7505169948004 10.148201918928
441 145 5 0 13.1453582937922 14.7505169948004 10.148201918928
442 145 7 0 13.3853582937922 13.8205169948004 10.148201918928
443 146 7 0 5.62420356131159 7.25536448339932 1.73160197446123
444 146 5 0 6.58420356131159 7.25536448339932 1.73160197446123
445 146 7 0 6.82420356131159 6.32536448339932 1.73160197446123
446 147 7 0 3.64911259079352 15.1243041285221 7.0550884923432
447 147 5 0 4.60911259079352 15.1243041285221 7.0550884923432
448 147 7 0 4.84911259079352 14.1943041285221 7.0550884923432
449 148 7 0 9.35983266259544 13.6856378164981 10.506856162101
450 148 5 0 10.3198326625954 13.6856378164981 10.506856162101
451 148 7 0 10.5598326625954 12.7556378164981 10.506856162101
452 149 7 0 5.62983884054236 11.7257368103042 7.89113498758525
453 149 5 0 6.58983884054236 11.7257368103042 7.89113498758525
454 149 7 0 6.82983884054236 10.7957368103042 7.89113498758525
455 150 7 0 1.4492903386429 9.12344122346491 6.7376252822578
456 150 5 0 2.4092903386429 9.12344122346491 6.7376252822578
457 150 7 0 2.6492903386429 8.19344122346491 6.7376252822578
458 151 7 0 -0.0144827454630285 13.2783343751822 1.81309264269657
459 151 5 0 0.945517254536971 13.2783343751822 1.81309264269657
460 151 7 0 1.18551725453697 12.3483343751822 1.81309264269657
461 152 7 0 10.4132381120883 5.39891202858649 2.20374876866117
462 152 5 0 11.3732381120883 5.39891202858649 2.20374876866117
463 152 7 0 11.6132381120883 4.46891202858649 2.20374876866117
464 153 7 0 12.3334467205871 1.89484626677819 2.81397470156662
465 153 5 0 13.2934467205871 1.89484626677819 2.81397470156662
466 153 7 0 13.5334467205871 0.964846266778186 2.81397470156662
467 154 7 0 0.0720045254286379 11.8494532924984 14.4400828785729
468 154 5 0 1.03200452542864 11.8494532924984 14.4400828785729
469 154 7 0 1.27200452542864 10.9194532924984 14.4400828785729
470 155 7 0 6.83819476442412 9.49573804781772 2.7515723509714
471 155 5 0 7.79819476442412 9.49573804781772 2.7515723509714
472 155 7 0 8.03819476442412 8.56573804781772 2.7515723509714
473 156 7 0 1.75718194965273 2.42077407584526 10.4700976645108