LAMMPS (29 Sep 2021 - Update 1)
Reading data file ...
  triclinic box = (0.0000000 0.0000000 0.0000000) to (15.000000 15.000000 15.000000) with tilt (0.0000000 0.0000000 0.0000000)
  2 by 4 by 4 MPI processor grid
  reading atoms ...
  1510 atoms
  scanning bonds ...
  2 = max bonds/atom
  scanning angles ...
  6 = max angles/atom
  scanning dihedrals ...
  6 = max dihedrals/atom
  scanning impropers ...
  1 = max impropers/atom
  reading bonds ...
  1009 bonds
  reading angles ...
  513 angles
  reading dihedrals ...
  13 dihedrals
  reading impropers ...
  2 impropers
Finding 1-2 1-3 1-4 neighbors ...
  special bond factors lj:    0        0        1       
  special bond factors coul:  0        0        1       
     4 = max # of 1-2 neighbors
     5 = max # of 1-3 neighbors
     8 = max # of special neighbors
  special bonds CPU = 0.002 seconds
  read_data CPU = 0.017 seconds
WARNING: Using 'neigh_modify every 1 delay 0 check yes' setting during minimization (../min.cpp:188)
Neighbor list info ...
  update every 1 steps, delay 0 steps, check yes
  max neighbors/atom: 10000, page size: 100000
  master list distance cutoff = 13
  ghost atom cutoff = 13
  binsize = 6.5, bins = 3 3 3
  3 neighbor lists, perpetual/occasional/extra = 3 0 0
  (1) pair hbond/dreiding/lj, perpetual, skip from (3)
      attributes: full, newton on
      pair build: skip
      stencil: none
      bin: none
  (2) pair lj/cut, perpetual, half/full from (3)
      attributes: half, newton on
      pair build: halffull/newton
      stencil: none
      bin: none
  (3) neighbor class addition, perpetual
      attributes: full, newton on
      pair build: full/bin
      stencil: full/bin/3d
      bin: standard
Setting up cg style minimization ...
  Unit style    : real
  Current step  : 0
WARNING: Energy due to 1 extra global DOFs will be included in minimizer energies
Per MPI rank memory allocation (min/avg/max) = 13.15 | 13.51 | 14.07 Mbytes
Step Temp E_pair E_mol TotEng Press Volume 
       0            0 4.8848544e+20    269.21006 4.8848544e+20 3.9697389e+22         3375 
    5298            0   -1039.3826    21.473984   -1017.9086    134.24194    37830.761 
Loop time of 4.92802 on 32 procs for 5298 steps with 1510 atoms

100.0% CPU use with 32 MPI tasks x no OpenMP threads

Minimization stats:
  Stopping criterion = energy tolerance
  Energy initial, next-to-last, final = 
    4.88485440084102e+20   -1017.3168542185  -1017.40614387069
  Force two-norm initial, final = 2.6400719e+23 121.92840
  Force max component initial, final = 1.5513012e+23 98.543065
  Final line search alpha, max atom move = 2.0899627e-05 0.0020595133
  Iterations, force evaluations = 5298 5318

MPI task timing breakdown:
Section |  min time  |  avg time  |  max time  |%varavg| %total
---------------------------------------------------------------
Pair    | 1.5602     | 2.6359     | 4.2173     |  36.2 | 53.49
Bond    | 0.0073182  | 0.010967   | 0.024192   |   2.8 |  0.22
Neigh   | 0.093462   | 0.093643   | 0.093828   |   0.0 |  1.90
Comm    | 0.25983    | 1.8431     | 2.9162     |  43.4 | 37.40
Output  | 0          | 0          | 0          |   0.0 |  0.00
Modify  | 0          | 0          | 0          |   0.0 |  0.00
Other   |            | 0.3444     |            |       |  6.99

Nlocal:        47.1875 ave          63 max          33 min
Histogram: 1 2 4 5 8 2 4 0 4 2
Nghost:        1942.66 ave        1970 max        1909 min
Histogram: 1 2 3 4 5 5 1 3 4 4
Neighs:        4926.03 ave        7243 max        3057 min
Histogram: 1 2 6 6 6 4 3 1 0 3

Total # of neighbors = 157633
Ave neighs/atom = 104.39272
Ave special neighs/atom = 2.0158940
Neighbor list builds = 94
Dangerous builds = 0
1500 atoms in group WAT
10 atoms in group MOL
Neighbor list info ...
  update every 2 steps, delay 10 steps, check yes
  max neighbors/atom: 10000, page size: 100000
  master list distance cutoff = 13
  ghost atom cutoff = 13
  binsize = 6.5, bins = 6 6 6
  4 neighbor lists, perpetual/occasional/extra = 3 1 0
  (1) pair hbond/dreiding/lj, perpetual, skip from (4)
      attributes: full, newton on
      pair build: skip
      stencil: none
      bin: none
  (2) pair lj/cut, perpetual, half/full from (4)
      attributes: half, newton on
      pair build: halffull/newton
      stencil: none
      bin: none
  (3) compute group/group, occasional, copy from (2)
      attributes: half, newton on
      pair build: copy
      stencil: none
      bin: none
  (4) neighbor class addition, perpetual
      attributes: full, newton on
      pair build: full/bin
      stencil: full/bin/3d
      bin: standard
Setting up Verlet run ...
  Unit style    : real
  Current step  : 5298
  Time step     : 1
Per MPI rank memory allocation (min/avg/max) = 12.00 | 12.05 | 12.66 Mbytes
Step Temp E_pair E_mol TotEng Press Volume 
    5298          300   -1039.3826    21.473984    331.50406    1764.7861    37830.761 
    5300    259.88845   -1031.2371    343.83924    481.59142    667.80572    37830.761 
    5400    299.82649    -1094.665    125.88109    379.84832    991.20108    37830.761 
    5500    303.79545   -1054.8008    203.45832    515.14236    930.68133    37830.761 
    5600    297.88376   -1071.6446    178.03342    446.28263    797.17625    37830.761 
    5700    303.44866   -1031.8753     169.7776    502.82724    896.30151    37830.761 
    5800    295.52759   -1055.9182     178.2463    451.62365    528.28957    37830.761 
    5900    306.72158   -1094.9478    184.45197    469.15079    701.08586    37830.761 
    6000    293.25013    -1095.519    194.18657    417.71909    440.35134    37830.761 
    6100    311.13397   -1044.8237    195.23787    549.90797    652.13697    37830.761 
    6200    305.53328   -1069.1774    195.34281    500.46702     550.8517    37830.761 
    6300    299.42791   -1069.4848    190.38471    467.73934    370.84801    37830.761 
    6400    297.58329   -1059.1198    200.75255    480.17494    211.79704    37830.761 
    6500    301.25769   -1058.7802    192.54468    488.83432    325.16278    37830.761 
    6600    304.32356   -1123.6402    201.88494    447.10506    174.87797    37830.761 
    6700    304.90898   -1097.6504    198.73854    472.58164    319.53948    37830.761 
    6800    300.29458    -1110.001    193.88905    434.62578    18.696547    37830.761 
    6900    308.81811   -1088.7684    196.76091    497.06952    42.571019    37830.761 
    7000    301.59429   -1105.7236    198.55978    449.42007     111.8176    37830.761 
    7100    309.76352   -1125.6437    186.90602    454.59174    -33.70482    37830.761 
    7200    305.93793   -1170.2535    200.52146    406.38976    85.454591    37830.761 
    7300    300.21302   -1149.9696    206.23332    406.63459    795.21253    37830.761 
    7400    294.04604   -1140.3075     196.3443     378.6683    484.17796    37830.761 
    7500    303.01703   -1129.3187    203.41549    437.08021     465.0874    37830.761 
    7600    300.15128   -1116.2762    206.85354    440.67056    583.13456    37830.761 
    7700     297.2153   -1169.4431    208.78513      376.229    737.43421    37830.761 
    7800    295.30461   -1117.6329    218.70848    429.36823    264.02109    37830.761 
    7900    298.80795   -1165.3953    205.43264    384.08812    185.68489    37830.761 
    8000    291.83335   -1195.9321    202.19647    318.94312    397.07819    37830.761 
    8100    298.06219   -1188.7434     208.2907    360.24367    86.077863    37830.761 
    8200    298.42624   -1138.5406    209.08469    412.87797    164.25242    37830.761 
    8300    294.79935   -1076.1025    206.65032    456.56779    7.4005701    37830.761 
    8400    293.55551   -1084.8879    214.76383    450.30105   -161.24951    37830.761 
    8500    291.70069   -1126.4805    218.23918    403.84078    271.61531    37830.761 
    8600    304.38176   -1086.0919    219.30214    502.33228    294.88185    37830.761 
    8700    305.17227   -1108.4828    222.19218    486.38721    95.052464    37830.761 
    8800    310.38858   -1094.4894     215.6693     517.3209    431.49359    37830.761 
    8900     300.1371   -1062.7531    239.38372    526.66006    38.708627    37830.761 
    9000    307.69648   -1074.9368    227.87458    536.96954    396.31135    37830.761 
    9100    299.39607    -1129.111    226.98137     444.5666    420.02373    37830.761 
    9200    303.94115   -1140.0243    233.58933    460.70517     140.0702    37830.761 
    9300    310.97939   -1117.6038    227.88148    509.07614   -10.632202    37830.761 
    9400     299.9017   -1130.2476    221.66563    440.38856    376.82436    37830.761 
    9500    298.42302   -1168.6337     226.4537    400.13937    277.72227    37830.761 
    9600    299.10407    -1184.788    229.23958    389.83441    356.03477    37830.761 
    9700     301.1477   -1105.7432    225.15595    473.98791    634.45062    37830.761 
    9800    303.08277   -1152.6267    227.82641    438.47884    778.54386    37830.761 
    9900    294.46663   -1165.3635    237.92057    397.08041    622.30091    37830.761 
   10000    294.26181   -1158.9691    234.10369    398.73665    1238.6554    37830.761 
   10100    283.88967    -1156.626    237.62331    357.94506    1097.0067    37830.761 
   10200    307.13843   -1153.8412    232.85632    460.53678    708.03293    37830.761 
   10300    301.46336    -1189.653    228.91631    395.25824    251.44924    37830.761 
   10400    304.62455   -1190.7754    236.54653    415.98528   -169.01029    37830.761 
   10500    304.67646   -1159.9587    242.11965    452.60859   -44.056755    37830.761 
   10600    305.23186   -1166.6708    235.42966    441.70469   -55.097966    37830.761 
   10700    295.47887   -1212.1593    236.43847    353.35563    64.766925    37830.761 
   10800    308.14411   -1199.9625     230.9008    416.98357    233.74823    37830.761 
   10900    302.48387   -1207.8985    237.47691    390.16364    50.700332    37830.761 
   11000    292.71388   -1189.8247    245.03049    371.84527    490.08348    37830.761 
   11100    287.85955   -1188.7799    263.29674    369.32131    237.66885    37830.761 
   11200    309.93966   -1219.9823    242.44298    416.58238    565.55459    37830.761 
   11300    309.69226    -1157.956     242.6511    477.70403    150.01691    37830.761 
   11400    296.95362    -1186.703    244.90445    393.91143    606.72407    37830.761 
   11500    292.27171   -1167.9771    249.55961    396.23301    247.07045    37830.761 
   11600    304.63585   -1160.8776    252.43389    461.82122    511.26586    37830.761 
   11700    314.13775   -1170.1952    259.14015    501.94983     232.6722    37830.761 
   11800    293.61837   -1103.4185    255.52797    472.81737    786.93907    37830.761 
   11900    303.62091     -1171.27    255.54954    449.97926    444.69533    37830.761 
   12000    302.33815   -1129.5893    265.61037    495.95086    324.70534    37830.761 
   12100    296.13984   -1108.3597    252.41641    476.10628    640.74217    37830.761 
   12200    309.30941   -1130.4856    265.19706    525.99823    659.41827    37830.761 
   12300    299.65243   -1141.6944    282.02692    488.18187    943.09178    37830.761 
   12400    303.57399    -1144.696      258.499    479.29163    534.15055    37830.761 
   12500    296.68465    -1131.695    258.48176    461.28692    236.18407    37830.761 
   12600    307.12952   -1189.5622    265.70368    457.62309    3.8698475    37830.761 
   12700    294.65276    -1156.524    258.69685    427.53342   -62.339137    37830.761 
   12800    295.59247   -1146.2045    268.38502    451.76797   -200.08011    37830.761 
   12900    297.18691   -1144.7646    278.21273    470.20747    85.602466    37830.761 
   13000    296.17287   -1182.7147    268.71571    418.19909    17.472425    37830.761 
   13100    290.34102   -1175.7326    252.74333    382.97691    123.23917    37830.761 
   13200    290.80842   -1161.8668    267.57081    413.77261    222.49421    37830.761 
   13300    298.62917   -1155.6879    265.76952    453.32831    286.06766    37830.761 
   13400    299.62753    -1160.176    259.10599    446.66734    179.69445    37830.761 
   13500    300.39119   -1156.4826     267.2689    461.95856    661.37354    37830.761 
   13600    310.43824   -1159.6388    245.98279    482.70838    177.42662    37830.761 
   13700    306.15603   -1172.9197    275.41808    479.60121    541.56189    37830.761 
   13800    308.31985   -1212.8394    252.18015    426.17652    90.322171    37830.761 
   13900     312.3188    -1209.199    266.61295    462.23717    674.71316    37830.761 
   14000     305.4938   -1229.6365    260.91526    405.40287     716.5481    37830.761 
   14100    305.18617   -1267.3269    264.38123    369.79468    703.40511    37830.761 
   14200    309.35777   -1249.6191    265.92242    407.80766    789.87443    37830.761 
   14300    316.38837   -1230.7459    267.12597    459.50834    406.25104    37830.761 
   14400    306.64097   -1204.7535    275.73131     450.2619    393.94252    37830.761 
   14500    310.58172   -1173.8541    258.22725    481.38283    277.07124    37830.761 
   14600    294.20645   -1171.9634    286.17005     437.5597    61.500945    37830.761 
   14700    307.30459   -1168.7434    280.22934    493.75501   -60.841847    37830.761 
   14800    293.99558   -1200.6804     283.4831    405.20732    412.41275    37830.761 
   14900    295.31012   -1208.4948    277.02566    396.84825    110.36755    37830.761 
   15000    298.46207   -1222.5925    271.73204    391.63459   -233.22284    37830.761 
   15100    296.01473   -1192.9342    271.70795    410.26055    273.00598    37830.761 
   15200    298.40497   -1177.5298    283.34086    448.04927    364.06849    37830.761 
   15300    295.19279   -1134.7079    300.88188    493.96368    670.61606    37830.761 
   15400    302.27262   -1159.7206    281.67643    481.59082    548.25989    37830.761 
   15500    301.98077   -1182.2312    283.82101    459.91207     535.2807    37830.761 
   15600    297.96017    -1166.452    278.15522    451.94073    397.73204    37830.761 
   15700      307.578    -1159.054    294.19713    518.64206    1152.2412    37830.761 
   15800    303.23914   -1153.7912    282.36809     492.5594    627.58131    37830.761 
   15900    305.51721   -1182.9128    295.57875    486.89535    1219.1218    37830.761 
   16000    305.23142   -1211.3013    287.37737    449.01991    792.91425    37830.761 
   16100    299.99088   -1199.1747    287.02205    437.21902    357.18788    37830.761 
   16200    308.14889   -1163.8475    285.70671    507.92595    678.70916    37830.761 
   16300      297.738   -1197.7383    264.25876    405.75859    414.42593    37830.761 
   16400    308.75353   -1217.6014    294.40824    465.59332    310.01006    37830.761 
   16500    307.30857   -1256.8346    276.05701    401.50934     232.7596    37830.761 
   16600    290.86238   -1233.0787    303.11435    378.34696    523.22096    37830.761 
   16700    304.82054   -1209.1171    269.28879    431.26743    155.14445    37830.761 
   16800    309.18182   -1190.5011    292.12833    492.34018    215.86121    37830.761 
   16900    286.00614   -1175.5792    300.10059     410.9891   -218.60243    37830.761 
   17000    297.64751   -1160.7649     288.6446    466.71084   -30.181054    37830.761 
   17100    302.52014   -1193.4685    287.81722    455.09712    172.27709    37830.761 
   17200      300.182   -1200.9074    299.93547    449.25939    201.21895    37830.761 
   17300    297.98817   -1187.5425    295.95548    448.77638     317.0524    37830.761 
   17400    301.55172   -1166.8895    297.92184    487.42474    160.43068    37830.761 
   17500    301.30706   -1147.4061    294.76081    502.64665     207.0816    37830.761 
   17600    312.13688   -1144.2733    302.39915    562.13079     45.30457    37830.761 
   17700    301.51737   -1111.6249    296.12385    540.73687    616.38726    37830.761 
   17800    297.27388    -1153.169    296.78297    480.76451    14.696217    37830.761 
   17900    308.41371   -1157.6323    284.95176    514.57737    181.55492    37830.761 
   18000    291.49557   -1201.5894    306.87728    416.44733    418.29355    37830.761 
   18100    304.04021   -1175.3828    318.58521    510.78822    228.36901    37830.761 
   18200    300.72712   -1165.1613    298.58243    486.10443    468.86128    37830.761 
   18300    306.59179   -1155.9638    289.52678    512.62587    459.44067    37830.761 
   18400    311.71957   -1207.5794    308.84885    503.39727    162.51543    37830.761 
   18500    298.96833   -1159.1941    304.82778    490.40595    85.805974    37830.761 
   18600    299.90572   -1153.3623    294.75861    490.38494    323.23394    37830.761 
   18700    307.56687    -1186.078    297.76465    495.13544       83.114    37830.761 
   18800    293.97705   -1173.1593    285.37873    434.54061   -601.78232    37830.761 
   18900    300.05765   -1204.2143    308.69858    454.15631    111.29202    37830.761 
   19000    293.70895   -1215.8336    308.45257    413.73426   -333.01766    37830.761 
   19100    291.54416   -1213.0973    318.50261    416.78333   -243.58309    37830.761 
   19200    315.86293   -1198.7263    290.76619    512.80472    111.29297    37830.761 
   19300    297.99328   -1221.8969    310.28317    428.77264    228.23621    37830.761 
   19400    308.53821   -1213.2905    305.41107    479.93847    196.12961    37830.761 
   19500     290.4842   -1213.2661    301.80394    395.14806    260.19578    37830.761 
   19600    299.61266   -1188.3405    313.37902    472.70896    190.35412    37830.761 
   19700    299.09477    -1193.497    300.09401    451.93796    353.85477    37830.761 
   19800     306.5722   -1219.5703    309.55028    468.95477    336.51024    37830.761 
   19900    293.61314   -1220.0534    308.62255    409.25346    793.71718    37830.761 
   20000    295.64835   -1259.2331    307.26329    377.86897    442.91077    37830.761 
   20100    304.66799   -1235.8551    310.41314    444.96751    292.07296    37830.761 
   20200    308.07693   -1236.1081    315.10074    464.73571    462.14515    37830.761 
   20300    295.55084   -1242.7513    301.48128    388.13019    8.0650903    37830.761 
   20400    290.62427    -1217.853    316.79848    406.18573   -4.1584791    37830.761 
   20500    297.68675   -1241.6509    305.29291    402.64962    160.86077    37830.761 
   20600    294.49047   -1252.9296    300.77832    372.47931   -9.0248736    37830.761 
   20700    300.67659   -1213.5089    309.72545    448.67261    215.36517    37830.761 
   20800     305.3479   -1231.7019    300.47526     442.2411    29.666138    37830.761 
   20900    296.17536   -1214.3382     318.6868    436.55788    291.06371    37830.761 
   21000    290.66356   -1207.4174    321.33216    421.33176    95.290113    37830.761 
   21100    305.26853   -1189.5855    315.07536     498.6006    159.11293    37830.761 
   21200    297.47811   -1238.5021    317.55476    417.12187    117.15293    37830.761 
   21300    286.05728    -1220.152    318.95479    385.50055   -470.66919    37830.761 
   21400    297.29564   -1231.4715    304.99064    410.76754   -128.37736    37830.761 
   21500    296.34187   -1226.9904     309.7372    415.70511   -283.06629    37830.761 
   21600    294.14588   -1218.2801    335.50124    440.30175    168.68463    37830.761 
   21700    308.07706   -1231.2898    320.74354     475.1974    314.37686    37830.761 
   21800     305.5586   -1227.1138    338.14672    485.44846    266.69195    37830.761 
   21900     300.6908   -1209.0688    325.49325    468.94437    286.51739    37830.761 
   22000    315.29743   -1197.5811     330.4183    551.05833    380.97349    37830.761 
   22100    299.50802   -1267.2021    318.44988    398.44757    259.39231    37830.761 
   22200     295.6931   -1256.1914    308.40225    382.25096    691.46847    37830.761 
   22300    307.05143   -1204.9588    332.17874    508.35027    917.25616    37830.761 
   22400    293.88838   -1229.9035    315.00299    407.02191    348.20246    37830.761 
   22500    305.88542    -1262.245    309.81594    423.45649    699.67006    37830.761 
   22600    299.81409      -1221.4    313.72643    440.90291     522.7909    37830.761 
   22700    298.37127    -1235.079     307.6364    414.64395    615.01672    37830.761 
   22800    289.44426   -1226.2142     338.0557    413.77405    547.02345    37830.761 
   22900    301.63462   -1205.5425    321.69921    472.92199     23.07333    37830.761 
   23000    292.23917   -1262.0074    332.79639    385.29319    111.42037    37830.761 
   23100    301.65473   -1226.0814    326.59096    457.36529    374.29779    37830.761 
   23200    296.24189   -1218.9504    340.80391    454.36208    574.97369    37830.761 
   23300    312.52807   -1230.1839    314.88789    490.46851    146.49829    37830.761 
   23400    301.07591   -1198.7879    319.76204    475.22635    107.20025    37830.761 
   23500    309.69451   -1207.5363    316.85037    502.33312    171.72077    37830.761 
   23600    295.89895   -1236.8702    311.86255    405.95833    330.97906    37830.761 
   23700     281.9873   -1231.1652    327.33763    364.56327   -42.054004    37830.761 
   23800    298.95544   -1221.5634    318.75549    441.90629    156.95873    37830.761 
   23900    307.97951   -1193.4553    320.73556     512.5851    232.49063    37830.761 
   24000     300.0884    -1235.598    320.49059     434.7029    200.90763    37830.761 
   24100    303.94065   -1230.3205    303.03532    439.85274    347.83813    37830.761 
   24200    294.88215   -1246.5386    309.69617    389.54997   -564.14241    37830.761 
   24300    300.78536   -1254.2629    307.11233    405.79474    12.633691    37830.761 
   24400    296.41484   -1275.3222    328.67922     386.6435    191.34734    37830.761 
   24500    309.84466   -1256.9824    318.43113    455.14308    258.76837    37830.761 
   24600    308.07065   -1269.6722     311.2865    427.32913    127.06646    37830.761 
   24700    295.35588   -1229.4838    312.84025    411.87969    386.90135    37830.761 
   24800    296.82882   -1214.2003    333.44488    454.39321    509.37487    37830.761 
   24900    295.68612   -1219.4057    321.82774     432.4307    643.37543    37830.761 
   25000    301.17501   -1247.2706    327.22734     434.6547    489.71257    37830.761 
   25100    288.82129   -1242.3305    318.15774    374.95764    392.01021    37830.761 
   25200    307.63343   -1279.3638    316.25116     420.6355   -118.43604    37830.761 
   25300    303.98836    -1235.969    320.20807    451.59155    59.919482    37830.761 
   25400    296.80871   -1252.8757    326.42951    408.61197    320.97695    37830.761 
   25500    310.95979   -1237.6026    337.49979    498.60748    87.258198    37830.761 
   25600    304.31928   -1222.5653    325.97769    472.25342    235.00482    37830.761 
   25700    297.98717   -1247.8909    335.75739    428.22544    219.29771    37830.761 
   25800    297.37357   -1223.4879    335.21581    449.32688    229.00269    37830.761 
   25900    291.70123   -1259.4201    325.13503    377.79943    439.23628    37830.761 
   26000    304.27415   -1201.1492    325.35432    492.84307    626.19047    37830.761 
   26100    301.03754    -1250.982    321.03178    424.12939    58.881311    37830.761 
   26200    307.49462   -1248.5124    337.11958    471.73096    615.84815    37830.761 
   26300     300.5302   -1227.3332    336.70224    461.16655    -24.17494    37830.761 
   26400    310.61083   -1244.2576    321.03086    473.91398    125.62358    37830.761 
   26500    294.56022   -1248.7669    316.17723    392.35469    705.44307    37830.761 
   26600    296.41628   -1250.2335    325.28992    408.34937    292.02523    37830.761 
   26700    287.39889   -1253.9485    338.13236    376.91625    172.71896    37830.761 
   26800      298.099   -1252.6071    344.39199    432.64688    520.57514    37830.761 
   26900    288.93339   -1346.0876    322.58492    276.13198     448.2376    37830.761 
   27000    293.88664   -1306.0332    347.81577    363.69714    868.52069    37830.761 
   27100    295.77157   -1290.3011    334.68845    374.78042    386.79529    37830.761 
   27200       305.27   -1263.9973    337.79236    446.91247    304.40498    37830.761 
   27300    311.18572   -1276.7845    340.04895    462.99095    277.95102    37830.761 
   27400    294.74205   -1305.1939    320.29168    340.85998   -282.02229    37830.761 
   27500    306.10264   -1308.5967    326.09251    394.35846   -252.13847    37830.761 
   27600    307.95857   -1246.5736    330.96184    469.59891   -54.583584    37830.761 
   27700     292.8958   -1272.2528    344.95969     390.1646   -231.19863    37830.761 
   27800    297.84601   -1264.5781    340.40477    415.55064   -273.52207    37830.761 
   27900     299.3823   -1266.2375    323.39833    403.79506   -453.31234    37830.761 
   28000    298.52096   -1240.4007    322.13498    424.49426   -538.08865    37830.761 
   28100    309.10224   -1200.6063     328.3319    518.08061    162.89638    37830.761 
   28200    297.64315   -1260.9035    340.29674    418.20478   -114.69025    37830.761 
   28300    295.93068   -1233.9136     339.5524    436.74757    312.37845    37830.761 
   28400    302.96713   -1237.2852    363.70939    489.18324    268.01719    37830.761 
   28500    299.74059   -1259.3066     339.9937    428.93291     14.05246    37830.761 
   28600    290.35872    -1302.654    319.33135    322.72311    71.736323    37830.761 
   28700    294.33077   -1307.7905    335.41581    351.53762   -203.48171    37830.761 
   28800    300.70651   -1253.9408    319.90653    418.55636    361.61128    37830.761 
   28900     290.4823   -1243.3157    335.28588    398.57188   -16.768714    37830.761 
   29000    287.81883   -1262.9057    342.02607    373.74165   -436.80861    37830.761 
   29100     297.7962   -1249.4583    356.76158    446.80322   -280.57778    37830.761 
   29200    304.21854   -1279.4461    358.07511    447.01688     399.3798    37830.761 
   29300    312.71506   -1260.8898    339.57941    485.29523    340.64569    37830.761 
   29400    305.56927    -1281.199     346.5637    439.82817    61.713428    37830.761 
   29500    307.18141   -1302.4443    326.85042     406.1211    445.07587    37830.761 
   29600    306.80646    -1252.549    353.62425    481.10368    311.45371    37830.761 
   29700    300.54379   -1255.9912    354.20891    450.07637    69.977324    37830.761 
   29800    308.96815   -1334.5601    329.64533     384.8371    615.92273    37830.761 
   29900    295.53406   -1285.2123    355.92486    400.03723    550.94732    37830.761 
   30000    302.24051   -1233.2594    340.62871    466.85986    570.27533    37830.761 
   30100    298.90206   -1290.1851    351.33911    405.62812     524.7962    37830.761 
   30200    306.00355   -1264.4331    359.84932    471.83312    388.37646    37830.761 
   30300    305.32493   -1314.1674    344.99498    404.19205    387.49668    37830.761 
   30400    297.52051   -1303.2754    343.14521    378.12967    317.16103    37830.761 
   30500    290.72696   -1312.2407    357.30707    352.76857    291.96886    37830.761 
   30600    296.01554   -1327.2918    349.21022    353.40889   -35.464153    37830.761 
   30700    300.87348   -1340.5394    355.35191     368.1542    631.95156    37830.761 
   30800    289.28784   -1342.2882    359.20392    318.14465    490.12205    37830.761 
   30900    297.82135   -1367.8221    339.50461    311.29557    309.40036    37830.761 
   31000    297.75859   -1346.6049    342.30523     335.0311     602.6091    37830.761 
   31100     298.2668   -1336.6391    349.40563    354.38319    208.57184    37830.761 
   31200    282.64299   -1331.8909    327.30719    266.75643   -296.25457    37830.761 
   31300    303.89919   -1326.7335    341.52408    381.74198   -123.64624    37830.761 
   31400    284.27362   -1313.8578    363.58611    328.40315   -100.61203    37830.761 
   31500    310.71257   -1299.5535    347.61684    445.66167    -228.0626    37830.761 
   31600    297.58179   -1294.0044    347.45334    391.98448   -58.313983    37830.761 
   31700    300.60957   -1269.2551    337.19213    420.09164    51.909488    37830.761 
   31800    296.23548   -1254.6399    369.56963    447.40947    250.09999    37830.761 
   31900    312.30784    -1271.511    350.97839    484.24135    68.490938    37830.761 
   32000    297.05889   -1301.2709    361.95976    396.87236    168.21061    37830.761 
   32100    289.07441   -1312.9419     360.6311    347.95812    600.26644    37830.761 
   32200    307.87478   -1314.3609    343.86454    414.33749    149.64552    37830.761 
   32300    299.72249     -1311.72    357.99052    394.43497    221.00826    37830.761 
   32400    317.64666   -1309.9909    367.48151    486.27876    168.66088    37830.761 
   32500    306.23702   -1316.1616    365.66367    426.96919    546.54523    37830.761 
   32600    299.43859   -1296.4689     377.4119    427.83048    767.38283    37830.761 
   32700    309.92815   -1273.5075    365.10857    485.67099    703.04788    37830.761 
   32800    295.91315   -1273.5675    372.50199     429.9644    215.02658    37830.761 
   32900    309.65278    -1291.352    355.29087    456.77016   -31.782796    37830.761 
   33000    303.16132   -1321.2693    356.27808    398.64121    117.37758    37830.761 
   33100    306.35112   -1319.0401    354.44158    413.38183    53.512276    37830.761 
   33200    296.10942   -1312.2269    336.81531    356.50113   -352.34567    37830.761 
   33300    304.36909   -1296.8211    356.16843    428.41245   -396.87915    37830.761 
   33400    306.24313   -1328.8831    380.17799    428.78946   -21.023152    37830.761 
   33500    288.96947   -1294.7363    374.47958    379.54022   -415.81414    37830.761 
   33600    302.94765   -1281.4935    335.41833     416.5962   -254.14474    37830.761 
   33700    311.30676   -1301.7275    382.96148    481.50499      -298.78    37830.761 
   33800    288.86137   -1301.0489    382.50495    380.76672    60.961552    37830.761 
   33900     303.5999    -1346.059    385.03553    404.58169     82.34285    37830.761 
   34000     296.7915   -1312.2954     368.5975    391.28285    -96.99974    37830.761 
   34100    306.06849   -1262.3147    400.87697    515.27132    145.13548    37830.761 
   34200    300.44392   -1265.7627    377.04503    462.69183   -462.72027    37830.761 
   34300    299.01418   -1290.4692     381.4505    435.95973   -220.17215    37830.761 
   34400    301.62982   -1306.2186    392.73198    443.25713   -89.860559    37830.761 
   34500    293.48868   -1307.9123    369.00054    381.21277   -180.67767    37830.761 
   34600    296.25334   -1331.4677    377.01251    378.10486    11.120827    37830.761 
   34700    304.70181   -1313.6641    359.28768    416.18521    288.55302    37830.761 
   34800     303.8959   -1323.6031    369.72323    413.05679    57.182933    37830.761 
   34900    301.10625   -1295.6338    364.86015      423.615   -38.140412    37830.761 
   35000    303.14403   -1330.6074    384.55304    417.50037   -341.34025    37830.761 
   35100    294.16258   -1353.9664    367.17756    336.36694    -381.8137    37830.761 
   35200    298.51527   -1323.2269    359.83637    379.34379    -107.1934    37830.761 
   35300    306.04824   -1293.6922    389.12259    472.04832    386.94632    37830.761 
   35400    291.68163   -1289.1966    379.52378     402.3235   -75.265766    37830.761 
   35500    301.25691   -1325.5923    355.34159    384.81566   -432.71315    37830.761 
   35600    294.37819   -1314.9867    370.57671    379.71558     -164.295    37830.761 
   35700     287.9998   -1319.3482    381.90308    357.99022    36.715206    37830.761 
   35800    293.77367   -1293.0169    372.24194    400.63142   -30.612784    37830.761 
   35900    296.33352   -1252.1989    363.74387    444.46572   -23.402183    37830.761 
   36000    293.92531   -1294.2168    382.62678    410.49842    241.44634    37830.761 
   36100    288.18884    -1254.293    383.21687    425.20949    257.53774    37830.761 
   36200    310.32088    -1249.772    393.54329    539.60778    483.04708    37830.761 
   36300    300.44557   -1281.5327     356.0051    425.88935    384.99869    37830.761 
   36400    297.82226   -1273.0923    383.12929    449.65413    446.73956    37830.761 
   36500    294.14669   -1289.0539    383.98944    418.01979    250.70229    37830.761 
   36600    308.78754   -1311.2343    381.26895    458.97406    116.11226    37830.761 
   36700    294.94927   -1279.4028    406.91054    454.20204     174.3254    37830.761 
   36800    301.21282   -1309.6219    378.83951    424.08566   -7.0243413    37830.761 
   36900    313.44609   -1333.5144    378.76651    455.14584    776.11623    37830.761 
   37000     289.5639   -1341.8918    378.17568    338.75458    786.50417    37830.761 
   37100    307.06326   -1325.8749    379.10813    434.41677    695.78583    37830.761 
   37200    293.22206    -1313.864    408.15411     413.2154    179.69462    37830.761 
   37300    310.40479   -1311.6419    395.44441    480.01637   -64.064989    37830.761 
   37400    303.97316   -1281.3849    394.48266    480.38187    224.85413    37830.761 
   37500    294.80386   -1297.6086    380.02934    408.46102   -38.773162    37830.761 
   37600    305.63325   -1319.0823    379.59211    435.26108    177.37499    37830.761 
   37700    293.67855   -1299.5687    363.36873    384.77865    574.44521    37830.761 
   37800    296.27895   -1280.7033    401.79871     453.7707   -6.4152737    37830.761 
   37900    308.26064   -1346.8885    380.04389    419.72476    384.46423    37830.761 
   38000    308.01606    -1343.972     375.2079    416.70515    52.558498    37830.761 
   38100    307.79414   -1343.1018    356.64778    398.01705   -826.14467    37830.761 
   38200    298.33551   -1334.6473    377.38728    384.66572   -485.67505    37830.761 
   38300    306.30832   -1305.0993    393.30795    465.99648   -183.66753    37830.761 
   38400    292.97991   -1291.6656    385.14217    411.31261    417.08031    37830.761 
   38500    310.27604   -1300.9865    394.22214    488.87039    585.34557    37830.761 
   38600    294.08918   -1346.8409    400.06371    376.04841      372.591    37830.761 
   38700    302.62632   -1308.7706     405.8472    458.30256     304.8156    37830.761 
   38800    291.93129   -1374.4927     393.5698    332.19638    -35.97839    37830.761 
   38900     305.8364   -1336.8264    365.17232    404.01099    27.217458    37830.761 
   39000    298.66263   -1335.1966    392.64599     400.8466   -382.93826    37830.761 
   39100    295.27745   -1379.8851     378.8831    327.16847   -287.92159    37830.761 
   39200    306.05433   -1355.9765    381.90785    402.57673    60.366243    37830.761 
   39300    304.75318   -1326.2186    383.73073    428.30482    104.32451    37830.761 
   39400    305.92673   -1319.5785    394.53374    451.02667     488.0514    37830.761 
   39500    298.75244   -1323.0389    428.45384    449.21613    183.40025    37830.761 
   39600    304.16491    -1318.265    402.66739    452.54905    514.62798    37830.761 
   39700    293.66378   -1352.5903    405.03347    373.35525    356.92928    37830.761 
   39800    287.38399   -1315.1183    401.13811    378.68517    214.19367    37830.761 
   39900    293.97897   -1334.0699    402.49414    390.75409    560.43405    37830.761 
   40000    308.31366   -1365.0987    381.41786     403.1271     568.6057    37830.761 
   40100    301.84832   -1323.0123    396.44847    431.16274    575.81409    37830.761 
   40200    285.43116   -1333.3779    393.62469    344.12821    310.99185    37830.761 
   40300    305.62924   -1285.5459    383.84747    473.03481   -77.299028    37830.761 
   40400    289.86814   -1293.0123    415.93422    426.76114    224.69063    37830.761 
   40500    304.60743   -1320.8379    398.19073    447.48998    53.560053    37830.761 
   40600    305.20581    -1294.212    389.04279    467.65949    557.15366    37830.761 
   40700    309.03997   -1292.7616    398.55908    495.87239     4.554894    37830.761 
   40800    295.02477   -1297.7732    402.06753    431.32831   -488.88142    37830.761 
   40900    303.80894   -1322.9118     388.2286    431.86232     88.55115    37830.761 
   41000    306.38771   -1359.3902    386.54504    405.29973    200.46925    37830.761 
   41100    293.55664   -1326.7521    413.69468    407.37278    182.31988    37830.761 
   41200    303.33641    -1326.935    383.94539     421.4304     58.94089    37830.761 
   41300     301.4734   -1317.7125    393.41056    431.73822     24.02029    37830.761 
   41400    295.84958    -1309.512    383.01559    404.24747   -375.63351    37830.761 
   41500    290.23998   -1302.5968    381.96488    384.87984   -663.36382    37830.761 
   41600    306.85278   -1325.9782    398.44656    452.70522   -29.389478    37830.761 
   41700    294.21493   -1333.4327    397.26892    387.22741   -38.064471    37830.761 
   41800    312.91958   -1336.2471    390.39636    461.67479    134.50807    37830.761 
   41900    295.63838   -1350.8645    398.55365    377.48311     537.2788    37830.761 
   42000    313.29181   -1325.0971    397.66704    481.76973    485.53648    37830.761 
   42100      300.253   -1345.0955    396.33351    401.78872    110.48475    37830.761 
   42200    308.51088    -1311.869    402.72272    478.54872    514.46486    37830.761 
   42300    307.08403     -1348.33    383.32949    416.27644    536.13103    37830.761 
   42400    300.20947   -1372.5618    386.07336    363.86648   -86.332462    37830.761 
   42500    288.87768   -1356.1679    405.01162    348.22776   -740.29412    37830.761 
   42600    307.26639   -1340.1486    398.99514    440.94381   -25.461779    37830.761 
   42700    301.88431    -1328.571    397.35858    426.67601     278.1276    37830.761 
   42800    299.10597   -1356.5717    411.40225    400.22191    114.94903    37830.761 
   42900    310.11589   -1383.2536    390.05846    401.71921      106.325    37830.761 
   43000    298.97218   -1358.2437    410.30602    396.85189     37.35443    37830.761 
   43100    295.51372   -1379.5647    384.46737    334.13588    186.27127    37830.761 
   43200    299.42732   -1401.6222    378.42237    323.63697    349.97065    37830.761 
   43300    294.27914   -1418.2547    392.15146    297.57687    383.01152    37830.761 
   43400    289.56506   -1392.7249    396.65653    306.40751    684.24632    37830.761 
   43500    303.13657   -1330.6818    411.60889    444.44822    1109.3722    37830.761 
   43600    302.66563   -1344.3837    383.74792    400.76699    602.46326    37830.761 
   43700    291.59885   -1323.8819    416.00816    403.75026    -219.7828    37830.761 
   43800    305.14203   -1316.8776    399.44323    455.10747    299.44388    37830.761 
   43900    294.98878   -1285.5054    429.08528    470.45188    256.96325    37830.761 
   44000     299.5313   -1279.3655    421.08297    489.02201    172.85564    37830.761 
   44100    300.85428   -1325.7164    416.13333    443.67226    683.89618    37830.761 
   44200    291.97587   -1352.1251    410.15584    371.35053    73.657015    37830.761 
   44300     310.3638   -1336.9969     412.3567     471.3893    742.14769    37830.761 
   44400    296.49288   -1379.1642    413.32088    367.79422    964.72562    37830.761 
   44500    295.36142   -1321.8216    443.82385    450.55042    1403.4723    37830.761 
   44600     293.0496   -1335.4404    416.42892    399.13801    506.82652    37830.761 
   44700    302.56627    -1331.185    397.93787    427.70874    393.79239    37830.761 
   44800    296.34866   -1352.2669    412.56104    393.28297    186.52325    37830.761 
   44900    301.22755   -1292.9204    417.07461    479.08846      38.2119    37830.761 
   45000    302.44058   -1325.5002    400.55976    435.45012     191.7608    37830.761 
   45100    308.93031   -1326.6224    434.44026    497.39953   -223.89607    37830.761 
   45200     305.4278   -1352.1846    392.78038    414.42297   -135.86714    37830.761 
   45300    306.17378   -1305.9485    408.32836    479.56245    298.96161    37830.761 
   45400    270.13893   -1346.7988    408.13832    276.43581    330.53292    37830.761 
   45500    303.40736   -1340.9851    403.84436    427.59846   -184.58484    37830.761 
   45600    302.59955   -1324.0452    402.52434    439.58476    74.138339    37830.761 
   45700    308.82536   -1342.5271    394.45747    441.03997    335.94322    37830.761 
   45800    299.75387   -1323.8648    403.45282    427.89367    760.22071    37830.761 
   45900    301.38706   -1391.7559    407.35011    371.24594    140.26712    37830.761 
   46000    307.56713   -1351.4232    426.33512    458.36189    399.14428    37830.761 
   46100    300.13587   -1376.7137    395.12393    368.43409    162.69481    37830.761 
   46200    303.33088   -1412.1832    395.94661    348.15857    233.31721    37830.761 
   46300    290.26601   -1380.7368    399.72928    324.62132   -99.289505    37830.761 
   46400    295.47087   -1366.5409    401.39169    363.89127    8.7457993    37830.761 
   46500    300.74724   -1381.9601    417.84882    388.66257    421.32204    37830.761 
   46600    298.02331   -1385.2112    393.97353    349.28378    552.33566    37830.761 
   46700    288.42134   -1385.1446     408.8067    320.99355   -74.365889    37830.761 
   46800    299.58504   -1378.9411    388.91716    357.52229    275.79712    37830.761 
   46900    297.25768   -1349.0163    416.87704     404.9384    318.86138    37830.761 
   47000     299.8243   -1417.7342    400.30561    331.19386   -295.51772    37830.761 
   47100    310.01684   -1355.1375    403.99814     443.3295   -17.595097    37830.761 
   47200    283.36116   -1338.8197    410.45439    346.20521   -6.3301057    37830.761 
   47300    302.90331   -1347.5512    408.31676    423.23745   -73.421734    37830.761 
   47400    307.60276   -1368.2103     406.8862    422.28609   -448.66357    37830.761 
   47500    299.04171   -1377.6958    415.67595    383.08244   -76.823888    37830.761 
   47600    306.84901   -1376.8786    419.92586    423.26717    183.11741    37830.761 
   47700    294.04588   -1369.8295    400.81263    353.61393    254.00298    37830.761 
   47800     295.2556   -1358.8882    392.75798    361.94201    111.82949    37830.761 
   47900    304.97493   -1362.0956    401.53086    411.22538    891.89244    37830.761 
   48000    302.28414   -1363.3229    397.13186    393.49585    675.02161    37830.761 
   48100    304.98142   -1416.4544    406.24342    361.60838    397.70647    37830.761 
   48200    305.56729   -1365.4898    401.14081    410.10562   -39.109026    37830.761 
   48300    305.63695   -1357.3589    408.25739    425.66642   -271.86815    37830.761 
   48400    304.86105   -1366.1465    403.85234    408.98371   -173.54313    37830.761 
   48500    294.55514    -1371.246    413.55299    367.22843    387.92586    37830.761 
   48600    306.66351    -1359.991    384.50235    403.89678    -469.3685    37830.761 
   48700    293.17335   -1388.7837    409.36934    339.29181    -475.3874    37830.761 
   48800    300.08995   -1345.5279    387.54441    391.83382    -274.5802    37830.761 
   48900    302.23969   -1325.4266    398.57161    432.63195    -352.3013    37830.761 
   49000    308.39375   -1366.2733    410.64681    431.54165   -148.51279    37830.761 
   49100    296.80681   -1347.0185    422.85809    410.88926   -90.229828    37830.761 
   49200    298.21219   -1305.7954    415.72298    451.29861    295.14809    37830.761 
   49300    289.76981   -1326.6363    412.25235    389.01296    212.16597    37830.761 
   49400    291.75489   -1349.0743    409.97325    373.22481    141.84253    37830.761 
   49500    294.71606   -1375.9651    407.70887    357.38909    60.504296    37830.761 
   49600    294.77724   -1378.6375    407.63952    354.92258    381.55279    37830.761 
   49700    300.42397   -1366.6944    387.22594    371.85131    234.53352    37830.761 
   49800    297.58326   -1350.2204    415.98186    404.30359   -365.50218    37830.761 
   49900    297.34009   -1297.0179    417.88505    458.31544   -199.02689    37830.761 
   50000    308.40283   -1370.9413    392.47368    408.74138   -16.457311    37830.761 
   50100    297.47386   -1304.7275    420.43167    453.75417   -70.688097    37830.761 
   50200    303.13039   -1318.3875    411.84106    456.94688   -397.09392    37830.761 
   50300     293.5355    -1258.579    414.01199     475.7681   -71.705037    37830.761 
   50400    304.63487   -1332.4135    428.45723     466.3043    168.08691    37830.761 
   50500     297.3575   -1351.6626    417.34894    403.21298    70.776428    37830.761 
   50600    302.63078   -1337.3742    425.42108    449.29299    484.08855    37830.761 
   50700     306.8264   -1344.1586    416.57789    452.53743   -3.0259484    37830.761 
   50800    294.10871   -1369.8471    413.87731    366.94368   -595.08353    37830.761 
   50900    298.97609   -1373.0415    417.94994    389.71557   -81.063796    37830.761 
   51000    314.17577   -1350.4494    406.00856    468.73511    783.02382    37830.761 
   51100    300.82544   -1366.9509     423.1826    409.35731    536.61272    37830.761 
   51200    294.71291   -1375.7992    443.53736    393.36933    487.50546    37830.761 
   51300    305.81104   -1400.9209    410.17845     384.8086    1227.6407    37830.761 
   51400    302.27559   -1361.2037     415.8773    414.32203    738.16129    37830.761 
   51500    291.26345   -1373.6645    401.79922    338.25004    340.00478    37830.761 
   51600    291.40202   -1383.9925    385.22094    311.96708   -36.256604    37830.761 
   51700    302.35018    -1382.104    387.92729    365.80715    188.71625    37830.761 
   51800    308.45613   -1403.2189    391.49922    375.72905   -84.111241    37830.761 
   51900    300.52301   -1398.7266    413.16233    366.20101   -195.82847    37830.761 
   52000    302.18097   -1370.5569    403.23113    391.89708    12.384777    37830.761 
   52100     306.4264   -1371.8582    397.69218    404.15289    490.33058    37830.761 
   52200    302.17588   -1341.9128    415.97894    433.26605   -323.96521    37830.761 
   52300    296.76337   -1362.6695    406.92752    379.11223   -20.859638    37830.761 
   52400    308.79683    -1340.743    421.99317    470.23137    483.92342    37830.761 
   52500    306.43217   -1354.2799    425.36099    449.42596   -335.71051    37830.761 
   52600    298.91316   -1399.5566    423.07722    368.04466   -283.82327    37830.761 
   52700    294.02238   -1338.2799    413.77755    398.02279    50.270908    37830.761 
   52800    305.84591   -1359.8124    404.12256    420.01802    301.25776    37830.761 
   52900    297.29561   -1364.6979    428.41285    400.96315    295.03233    37830.761 
   53000    305.00804   -1349.4191     419.0551    441.57506    311.22036    37830.761 
   53100    294.48155   -1368.9058    420.97861    376.66333    326.91395    37830.761 
   53200    302.66367   -1359.5451    415.60698    417.45588    582.94052    37830.761 
   53300    303.41854   -1366.8371    426.44698    424.39931   -13.645455    37830.761 
   53400    289.73191    -1400.369    421.22411    324.08155    9.1282238    37830.761 
   53500    290.95225   -1381.3324    411.68463    339.06781   -269.69532    37830.761 
   53600    291.62687   -1386.5963    427.48422    352.63793   -338.71602    37830.761 
   53700    293.64594   -1340.0943     410.9299    391.66748    204.72107    37830.761 
   53800    296.10953   -1364.2817    431.71275    399.34421   -326.99353    37830.761 
   53900    292.88715    -1332.811    414.96263     399.5705   -310.85953    37830.761 
   54000    307.44157   -1345.8804     430.1116    467.11642   -819.99342    37830.761 
   54100    299.21872   -1333.2226    429.86677    442.54263   -495.00269    37830.761 
   54200    303.88523   -1325.0206    432.38846    474.25651   -464.67226    37830.761 
   54300    294.28551   -1321.3803    420.26145    422.58987   -276.10917    37830.761 
   54400    307.12533   -1322.9235    429.76633    488.30561   -370.64011    37830.761 
   54500    298.32823   -1281.7869    438.07865    498.18472   -315.60846    37830.761 
   54600     297.4674   -1289.1079    450.96021    499.87334    7.4962847    37830.761 
   54700    307.88261   -1325.1899     464.2039    523.88296    -539.3911    37830.761 
   54800    299.40361   -1341.2997    435.76727     441.1977    -10.41978    37830.761 
   54900    289.68746   -1363.3389    431.17697    370.86451   -465.47335    37830.761 
   55000    300.73892   -1362.2956    428.44338    418.88419   -330.00285    37830.761 
   55100    306.64521   -1379.1035    437.69292    437.89254   -275.38324    37830.761 
   55200    303.06252   -1379.5894    416.68292    400.28162    180.46811    37830.761 
   55300    299.69154   -1436.4103    428.32975    339.94473    306.83804    37830.761 
   55400    308.36298   -1399.3318     407.2626    394.96053    456.77727    37830.761 
   55500    291.36807   -1380.9585    430.76509    360.39252    281.82135    37830.761 
   55600    288.41007   -1356.3201    418.95536    359.91596    238.67311    37830.761 
   55700    296.47455   -1383.4124    431.07615    381.21885     386.6402    37830.761 
   55800    299.55616   -1391.6202    410.04514    365.84128    454.55448    37830.761 
   55900    300.78519   -1425.9262    438.33248    365.35076    223.13953    37830.761 
   56000    310.90092   -1451.1695    422.26986    369.54585     224.7958    37830.761 
   56100    301.24696     -1432.13    418.83144    341.72308    500.13759    37830.761 
   56200     302.7659   -1412.4237     452.2933    401.72347    337.72253    37830.761 
   56300    307.10802   -1444.8485    441.01068    377.54702    498.25494    37830.761 
   56400    297.27667   -1416.7672    427.77983    348.17569   -144.67681    37830.761 
   56500    291.14127   -1416.5009    415.98804    309.05287   -241.35511    37830.761 
   56600    301.38317   -1407.6001    415.94208    363.97622   -116.26272    37830.761 
   56700    300.06254   -1417.3916    427.12543    359.42789    335.37865    37830.761 
   56800    293.70435   -1381.3743    431.88654    371.60684    4.2179317    37830.761 
   56900    297.72554   -1422.1597    442.24525    359.26765    112.82157    37830.761 
   57000    305.08602   -1422.8321     438.8167    388.27442    264.65664    37830.761 
   57100    297.93217   -1395.6347     425.8725    370.34931   -254.08288    37830.761 
   57200    304.27428   -1386.1254     451.9765    434.48966   -319.72897    37830.761 
   57300    297.68936    -1396.293    440.67065    383.39704    -85.60574    37830.761 
   57400    303.94651   -1352.0818    431.45594    446.53843   -67.453616    37830.761 
   57500    304.93617   -1370.8732    464.71455    465.45719    99.322965    37830.761 
   57600    293.20479   -1406.5373    431.00755    343.31778   -58.701703    37830.761 
   57700    303.38323   -1402.4605    421.52241    383.69252    311.87356    37830.761 
   57800    304.28205   -1366.3382    445.36544    447.70084   -93.618478    37830.761 
   57900    306.71419    -1382.111    432.09556    429.59799   -168.80023    37830.761 
   58000    294.81704   -1418.3586    445.90022    353.64122   -506.92503    37830.761 
   58100    299.39241   -1409.4136    424.57172     361.8379   -198.28458    37830.761 
   58200    288.82114   -1428.7285    431.43327    301.83445   -218.71092    37830.761 
   58300    308.75394   -1432.8395    422.05816    378.00699     248.6174    37830.761 
   58400    302.74416   -1421.2405    440.84694    381.36245    569.30499    37830.761 
   58500    299.44698   -1387.1641    421.79582    381.55689    343.55017    37830.761 
   58600    293.10007    -1395.742    434.74768    357.38219    127.34691    37830.761 
   58700    286.00189   -1388.2096     445.9805     344.2195    287.45435    37830.761 
   58800    296.22481   -1410.7852    439.02141    360.66796    505.77084    37830.761 
   58900    287.77364   -1443.8551    439.58102    290.14396    432.99713    37830.761 
   59000    297.05435   -1468.2275    433.71805     301.6536    768.24108    37830.761 
   59100    309.07345   -1433.9707    439.28494    395.53975    299.32603    37830.761 
   59200    299.45322   -1460.4823    450.90866     337.3796    206.56964    37830.761 
   59300    290.71038   -1442.8358    415.68584    280.47765    363.20935    37830.761 
   59400    299.21517   -1444.4929    441.51978    342.90936    237.85631    37830.761 
   59500    312.17209   -1433.0056    435.41586    406.57352    340.24856    37830.761 
   59600     297.7172   -1415.9206    437.31432    360.53831   -84.340664    37830.761 
   59700     291.6679   -1417.7711    423.73947    317.90297    25.467803    37830.761 
   59800    296.10895   -1406.2636    431.32092    356.96795   -287.99739    37830.761 
   59900     293.0021    -1420.412    412.32049    309.84438   -79.919293    37830.761 
   60000    300.10039   -1377.8932    408.85454    380.82561   -94.885106    37830.761 
   60100    296.44131   -1425.1467    420.14859    328.40745   -59.726018    37830.761 
   60200    297.94596    -1408.125    447.97383    380.02236    8.1149433    37830.761 
   60300    298.39385     -1396.09    412.07712    358.17533   -349.94862    37830.761 
   60400      303.665   -1353.4175    442.24915    454.72969   -568.71161    37830.761 
   60500    294.83728   -1358.8498    430.65884     397.9996    455.82748    37830.761 
   60600    295.86924   -1416.6855    424.40237    338.54925   -295.92938    37830.761 
   60700    297.85486    -1418.926    439.33293    360.17069    207.77046    37830.761 
   60800    303.22115   -1408.6635    433.27758    388.51565    270.64842    37830.761 
   60900    298.28785    -1400.102    416.56556     358.1749    330.82412    37830.761 
   61000    294.45697   -1379.3247    474.85179    420.00701    744.95844    37830.761 
   61100    295.12674   -1424.8844    419.97851    322.58668     407.7235    37830.761 
   61200    305.31087   -1466.3904    438.17263    345.08347    545.84867    37830.761 
   61300    299.89699   -1398.5692    444.28095    394.66113    102.44038    37830.761 
   61400    292.07141   -1420.1866    449.67062    343.23364    343.63067    37830.761 
   61500     305.5327   -1426.7388    422.83857    370.39885    959.01564    37830.761 
   61600     298.4456   -1368.8817    428.06658    401.60587    205.46439    37830.761 
   61700    308.50204     -1373.52    458.68071    472.81593    269.38929    37830.761 
   61800    302.71957   -1396.9774    444.80367    409.47167   -219.41326    37830.761 
   61900    300.87625    -1393.735    422.91849    382.53764   -490.97399    37830.761 
   62000    300.92444   -1361.8031    430.05773    421.82554   -975.15504    37830.761 
   62100    299.90487   -1416.2972    415.44191    348.12955   -549.11931    37830.761 
   62200    301.37365   -1378.5991    436.09886    413.09118   -320.63246    37830.761 
   62300    294.63799   -1391.7754    411.10141    344.62019   -150.14143    37830.761 
   62400    295.63279   -1394.3205    436.65082    372.09913   -34.781793    37830.761 
   62500    305.60201   -1400.0465    431.79111    406.35542   -432.77101    37830.761 
   62600    292.71644   -1397.2714    423.06164    342.44119   -50.140735    37830.761 
   62700    305.41951    -1467.163    430.51932    337.14622    436.28667    37830.761 
   62800    298.23804   -1411.7797    467.58315    397.29083   -408.89116    37830.761 
   62900    302.69238   -1423.1667    411.76806    350.12451    18.759253    37830.761 
   63000     303.6421   -1441.5136    433.17811    357.45956   -310.67059    37830.761 
   63100    302.64459   -1419.0223    434.23819    376.52412   -43.947675    37830.761 
   63200     295.3027   -1436.5544    434.75391    326.48357   -431.74517    37830.761 
   63300    289.14094   -1411.8445    440.47981    329.20348   -471.21437    37830.761 
   63400     289.3024   -1401.9179     447.7255    347.10202   -473.06342    37830.761 
   63500    301.21215   -1409.7806    442.59897    387.68339   -448.48661    37830.761 
   63600    296.60509   -1431.1576    436.92432    339.90896   -67.375288    37830.761 
   63700    305.79339   -1437.0831    432.55074    370.93925   -302.10461    37830.761 
   63800     307.1882   -1424.1239    431.53015    389.15176    -81.42422    37830.761 
   63900    290.44458   -1398.9491    445.27354    352.75641   -317.20576    37830.761 
   64000    306.72959   -1407.0012    459.46348    432.14499   -344.41879    37830.761 
   64100    303.20212   -1413.1061    396.52208    347.23193   -282.87359    37830.761 
   64200    312.11984   -1421.2943    448.00781    430.64176   -76.059802    37830.761 
   64300    300.31239   -1398.7078    480.23497    432.34507    103.74487    37830.761 
   64400    307.90612   -1396.3264    448.20599     436.8544    359.63482    37830.761 
   64500    315.83488   -1411.6359     439.5203    448.52302   -178.52788    37830.761 
   64600      301.344   -1424.5223    415.08935    346.02515   -171.98287    37830.761 
   64700    299.32091   -1467.0304    411.80541     291.1331   -200.47497    37830.761 
   64800     293.0258   -1394.9242    441.12055    364.23888   -191.53871    37830.761 
   64900    306.06873   -1432.9231    410.84498    354.63202    -299.1659    37830.761 
   65000    293.33556   -1435.5063      432.902    316.83147   -31.639452    37830.761 
   65100    302.79029   -1410.9711    440.43831    391.43076   -274.31413    37830.761 
   65200    304.94465   -1408.9247    428.03332    390.76252    -322.2446    37830.761 
   65300    313.69252   -1408.8523    414.97704    417.12699     161.7261    37830.761 
   65400    297.66465   -1379.8479    445.13156    404.19183    492.01788    37830.761 
   65500    294.08044   -1396.2478    456.92387     383.4623    694.69961    37830.761 
   65600    305.69135   -1370.4346    449.88627    454.46433    573.54872    37830.761 
   65700     295.4867    -1444.337    435.72176    320.49642    161.13555    37830.761 
   65800    292.59032   -1410.1319    439.49258    345.44431    188.33494    37830.761 
   65900    297.46157   -1397.3277    409.62167    350.28873   -97.085902    37830.761 
   66000    298.13252   -1416.5509    450.13019      374.592   -238.98291    37830.761 
   66100    288.53284   -1400.6634     440.9888    338.15839   -348.96277    37830.761 
   66200     304.8197   -1416.8946    452.06069    406.25801    -50.60606    37830.761 
   66300    293.22185    -1423.285    436.36546    332.00473    -45.18703    37830.761 
   66400    294.52729   -1412.0524    446.54859    359.29241    84.488912    37830.761 
   66500    296.60158   -1429.2616    451.87302    356.73794    163.37867    37830.761 
   66600    291.39685   -1438.0863    442.15667    314.78577    455.76503    37830.761 
   66700    295.59197    -1465.894    419.85582    283.54697    55.135019    37830.761 
   66800    295.13027    -1401.826    435.70195     361.3844    203.81591    37830.761 
   66900    297.37661   -1405.7578    427.05155    358.90638    297.83294    37830.761 
   67000    291.02916   -1435.9424     451.6745    324.79363    442.67708    37830.761 
   67100    301.71354   -1444.5446    431.78007    344.35579   -378.14556    37830.761 
   67200    290.44319   -1387.6497    429.94302    348.71907   -82.365697    37830.761 
   67300    299.91599    -1395.838    424.28941    377.48623    198.13898    37830.761 
   67400    304.17917   -1415.4236    427.71444    380.50168    317.89355    37830.761 
   67500     302.0856   -1403.8667    437.55929    392.48646   -55.057842    37830.761 
   67600    309.84709   -1434.9902    446.97976    405.69494   -25.728992    37830.761 
   67700    292.13775   -1371.2702    457.45923    400.23699     126.1131    37830.761 
   67800    310.51376   -1398.0994    454.33791    452.94252    413.98823    37830.761 
   67900    295.25241   -1351.3136    450.67597    427.42023    145.56692    37830.761 
   68000    292.28546   -1367.8222    429.01325    375.90342   -82.586767    37830.761 
   68100    298.62716   -1344.2091    439.30001     438.3285    181.68887    37830.761 
   68200    300.05729   -1359.7662    461.08742    450.99163    48.449402    37830.761 
   68300    299.96624   -1383.6686    453.15885    418.75113    41.143962    37830.761 
   68400    299.42982   -1393.0882    426.50695    380.26675    22.687696    37830.761 
   68500    299.97048    -1417.531    445.57316    377.32212    166.49865    37830.761 
   68600    298.50421   -1379.7444    445.51229    408.45244    518.31225    37830.761 
   68700    303.97383   -1381.6033    450.74853    436.43243    530.03118    37830.761 
   68800     305.7515   -1400.8167    448.91725     423.3837     158.8123    37830.761 
   68900    307.98031   -1410.4586    443.59912      418.449    647.53825    37830.761 
   69000    290.23063   -1433.7647    427.44501    299.14994    609.85802    37830.761 
   69100     306.1059   -1418.7366    425.71267    383.85341    510.71703    37830.761 
   69200    304.06413   -1356.2104    465.18831     476.6712     267.3196    37830.761 
   69300    292.58495   -1374.4464    442.82437    384.43746    125.03851    37830.761 
   69400    299.81588   -1385.4506    442.08793    405.22186    307.50266    37830.761 
   69500    311.29495   -1448.7278    436.99074    388.48081    399.70536    37830.761 
   69600    299.36915   -1439.8397     427.5029    334.23831   -262.20796    37830.761 
   69700    287.31927   -1412.6703    424.26719    303.97113    -117.8773    37830.761 
   69800    304.81349   -1421.7672    456.28448    405.58125    49.354191    37830.761 
   69900    305.43365   -1402.2088     451.1288    422.77348    62.030173    37830.761 
   70000    296.32677   -1393.9149    443.71942    382.69491    123.40158    37830.761 
   70100     301.9689   -1415.7737    453.80224     396.2974    827.99445    37830.761 
   70200     296.9697   -1439.6499    451.60726    347.73968     515.7103    37830.761 
   70300    290.93413   -1375.2722    461.80076    395.16258    450.07723    37830.761 
   70400     297.7799   -1404.7389    448.36191    383.04961    298.08003    37830.761 
   70500    303.68699   -1404.4412    450.11373    411.66948   -186.04681    37830.761 
   70600    304.73337    -1433.401    443.86367    381.16627   -462.98198    37830.761 
   70700    311.38508     -1478.19    436.82091    359.25423   -244.77997    37830.761 
   70800    305.56929   -1464.0702    442.91312    353.30653   -536.70949    37830.761 
   70900    292.90065   -1414.9226    438.22287    340.77986   -199.53595    37830.761 
   71000    297.33277   -1434.8073    444.68749     347.2956   -307.63772    37830.761 
   71100    308.52027   -1436.2891    434.89488      386.343   -428.10831    37830.761 
   71200     299.0324   -1403.8114    455.83386    397.08287   -29.882458    37830.761 
   71300    293.94222   -1392.4657    436.95262    366.65144   -37.437095    37830.761 
   71400    314.63909   -1385.9246    417.62317    446.95856    261.85547    37830.761 
   71500     301.5198   -1375.5269     444.2695    424.99147    136.69811    37830.761 
   71600    298.74516   -1392.6036    453.02737    404.19215   -228.22763    37830.761 
   71700    302.18995   -1398.8345     454.2407    414.66936     138.3322    37830.761 
   71800    285.77804   -1382.9383     468.0309    370.53439   -11.378014    37830.761 
   71900    302.78564   -1416.0256     450.0235    395.94056    159.04843    37830.761 
   72000    302.29759   -1423.4058    450.45135    386.79292   -243.40169    37830.761 
   72100    290.29387   -1445.8857    457.79894    317.66734    111.60083    37830.761 
   72200     298.7418   -1443.3763      435.419    335.79601    171.73033    37830.761 
   72300    296.24301   -1467.6976    438.26778    303.08382    586.66327    37830.761 
   72400    299.08739   -1488.6602    447.82465    304.47217   -16.841052    37830.761 
   72500    298.45861   -1478.6669    418.39605    282.20868   -121.66443    37830.761 
   72600     293.0732   -1462.5367    444.98604    300.70507   -287.14739    37830.761 
   72700    309.30836   -1430.5409    448.19205    408.93325   -278.94217    37830.761 
   72800    300.52421   -1431.9697    432.09055    351.89145   -673.33774    37830.761 
   72900    306.77904   -1479.2718     454.6353    355.26859   -824.01618    37830.761 
   73000    291.41233   -1465.9335    445.24924    290.10068   -199.88819    37830.761 
   73100    298.09347   -1437.9364    482.26781    385.16844    -224.1732    37830.761 
   73200    297.38969   -1407.7436    442.93494    372.86273   -809.47474    37830.761 
   73300    308.07178    -1447.971     439.7053    377.45425   -574.27402    37830.761 
   73400    303.06501   -1417.0331    432.01035    378.17644    -939.1224    37830.761 
   73500    310.02168   -1444.8434    459.56208    409.20932   -505.44122    37830.761 
   73600      299.571   -1499.4988    448.71505    296.69925   -127.76851    37830.761 
   73700    311.49495   -1458.5254    435.73304    378.32511   -294.06844    37830.761 
   73800    292.18201   -1427.2015    441.44875    328.49434    167.20223    37830.761 
   73900     299.2459   -1427.0334    448.92643    367.91379    420.23215    37830.761 
   74000    297.92874   -1448.8344    457.13027    348.39199    776.25722    37830.761 
   74100    294.71551   -1404.0882    457.95162    379.50628    358.05874    37830.761 
   74200    306.91508   -1417.6772    460.05731    422.89719    595.18035    37830.761 
   74300    306.73994    -1438.861    442.47329    383.34154    181.53428    37830.761 
   74400    295.08393   -1439.4363    457.25455    345.11821    729.27513    37830.761 
   74500    304.18779    -1454.358    427.17673    341.06833    63.299768    37830.761 
   74600    293.20318   -1428.0704    460.12871    350.89866     82.99121    37830.761 
   74700    308.06701   -1464.5732    459.36831    380.49356    55.953527    37830.761 
   74800    293.20649    -1462.735    426.27955    282.39978    184.57267    37830.761 
   74900    291.68677   -1413.2847     452.6594    351.39419    217.12623    37830.761 
   75000    295.61148   -1458.3041     443.9449    315.31372    260.03451    37830.761 
   75100    296.17763   -1444.5731    440.34991    327.99639    195.38638    37830.761 
   75200       305.97   -1447.0018    455.89116    385.15539    363.22683    37830.761 
   75300    300.19783   -1438.8305      444.226    355.69809    409.46337    37830.761 
   75400     300.8752   -1460.8042     461.0386    353.58377    898.24085    37830.761 
   75500    299.30966   -1452.7705    456.97031    350.50739    1095.8993    37830.761 
   75600     293.7984   -1431.5506    452.21454    342.18159    397.06059    37830.761 
   75700    299.19951    -1452.832    463.67616    356.65626    320.36699    37830.761 
   75800    307.01974   -1446.9767    467.89947     401.9106   -380.32545    37830.761 
   75900    298.36116    -1425.059    477.57455    394.55674    -67.46396    37830.761 
   76000    306.57961   -1447.2098     446.8202    378.61848   -398.98111    37830.761 
   76100     309.6032   -1415.6746    454.20968    431.14342   -507.64344    37830.761 
   76200      307.529   -1406.2246    455.29396    432.34785   -804.20508    37830.761 
   76300    298.66026   -1408.6209    473.78734    408.55293   -1017.4278    37830.761 
   76400     304.6004   -1411.2459     449.6132    408.47285   -470.51724    37830.761 
   76500    297.90265   -1436.9315    451.14965    354.19689   -226.01456    37830.761 
   76600    299.50142   -1433.9668    470.35038    383.55367    100.50522    37830.761 
   76700     305.5455   -1435.3229    467.34901    406.38271    115.89342    37830.761 
   76800    303.00568   -1439.6693    446.86838    370.13144    246.81435    37830.761 
   76900    305.79774   -1492.5179    464.98145    347.95475   -1.5067101    37830.761 
   77000    300.18814   -1464.1369    460.99583     347.1179   -199.51119    37830.761 
   77100     305.3023   -1451.0191    443.57184    365.81546   0.73268982    37830.761 
   77200    294.96105   -1431.8165    445.35929    340.29008    49.665885    37830.761 
   77300    313.48383   -1453.6389    470.20898    426.63362   -22.945265    37830.761 
   77400      300.034   -1441.0989    455.70684    364.17357   -248.51062    37830.761 
   77500    291.92538   -1430.2912    442.18545    324.98691   -669.52045    37830.761 
   77600    306.89421   -1504.7195    442.92208    318.62578   -290.28753    37830.761 
   77700    297.46667   -1486.7559    437.57194    288.83373   -531.77337    37830.761 
   77800     302.4001   -1464.5256    489.25991    384.94282   -528.11609    37830.761 
   77900    298.55327   -1500.5518    454.53864    296.89214    -800.8599    37830.761 
   78000    303.41748   -1470.2118    448.76649    343.33932   -518.80864    37830.761 
   78100    297.04709   -1552.4011    451.04229    234.77155   -360.38841    37830.761 
   78200    298.82044   -1516.0051    442.89126    270.99318   -112.39647    37830.761 
   78300    294.22494   -1478.3032    471.54968    316.68275   -56.718257    37830.761 
   78400    291.76328   -1446.6283    439.85892    305.59418   -217.16716    37830.761 
   78500    293.92408    -1465.626     474.1464    330.60336    339.35305    37830.761 
   78600     303.8865   -1462.9498    476.51997     380.4645   -132.76687    37830.761 
   78700    299.93037   -1459.6764    439.38408    328.80725   -357.13693    37830.761 
   78800    309.82253    -1474.207    467.62069    387.00852   -236.18021    37830.761 
   78900    298.11529   -1448.4678     418.2401     310.7075   -609.51241    37830.761 
   79000    291.00048   -1456.1039    473.15876    325.98729   -772.26966    37830.761 
   79100    307.22447   -1462.1239    471.34701     391.1318    -311.2966    37830.761 
   79200    295.65093    -1468.883    451.87063    312.83805    542.11453    37830.761 
   79300    309.15284   -1471.0719    462.65115    382.16181   -0.4867281    37830.761 
   79400    300.62786   -1456.7216      437.335    332.85023    242.44334    37830.761 
   79500    297.71974   -1481.6693    464.27272    321.75945    823.04818    37830.761 
   79600    295.18784   -1450.0341    480.05648    357.78976   -151.16969    37830.761 
   79700    299.72232   -1476.6824     461.1735     332.6548    63.595693    37830.761 
   79800    295.33532   -1438.6952    447.81685    337.55244    119.83658    37830.761 
   79900    303.12957   -1448.7067    463.31188     378.0948    -143.4025    37830.761 
   80000    294.29692   -1435.8417    440.38878    328.30714   -259.20989    37830.761 
   80100    297.44712   -1453.8558    461.98596    346.05988    457.22116    37830.761 
   80200    302.04823   -1472.3024    460.95437    347.27772   -216.65094    37830.761 
   80300    302.80142   -1454.1386    418.61023    326.48526   -262.26083    37830.761 
   80400    301.79606   -1443.5738    492.89774     406.8154    486.39156    37830.761 
   80500    289.94814   -1424.3046    479.60712    359.50155    885.28718    37830.761 
   80600     289.7119    -1487.922    439.38927     254.6037    276.06602    37830.761 
   80700    304.42141   -1441.5429    475.80693    403.56443    392.96992    37830.761 
   80800    312.27778   -1470.1636    483.05317    417.52824    480.64655    37830.761 
   80900    293.05195   -1445.8773     453.7819    326.06475   -90.259973    37830.761 
   81000    295.44423   -1442.5838     465.3935    351.73031   -307.09499    37830.761 
   81100    300.22473   -1479.2938    467.27718    338.40694     -414.067    37830.761 
   81200    301.62316   -1453.9603    444.25567    347.00909   -533.00422    37830.761 
   81300    297.54981    -1475.018    443.65435      307.028   -419.82611    37830.761 
   81400    305.30596   -1497.0376    470.25914    346.50068   -607.75046    37830.761 
   81500    301.51478   -1497.8768    458.15316    316.50257    106.37367    37830.761 
   81600    306.91319   -1458.1056    462.89432    385.29722    280.72165    37830.761 
   81700    297.12857   -1442.4712    485.21591    379.24162    586.84556    37830.761 
   81800    308.78122   -1444.3112    475.81398    420.41374    492.80358    37830.761 
   81900    303.98507    -1445.521    473.37044    395.18718    485.98125    37830.761 
   82000    301.05184   -1481.9834    458.03125    330.19174    251.51569    37830.761 
   82100    311.60029   -1485.4714    453.87851     369.9984    270.70464    37830.761 
   82200    290.71796   -1474.2048     464.6105    298.06745   -163.31614    37830.761 
   82300    299.52446    -1486.523      444.422    305.17266    100.92299    37830.761 
   82400    300.38171   -1501.6129    452.48834    302.00512    102.16937    37830.761 
   82500     297.7474   -1456.8051    462.54275    345.01805    350.33817    37830.761 
   82600    300.47863   -1429.4326     459.0217    381.15471    12.309797    37830.761 
   82700    292.71448   -1427.4387    462.86248     352.0659   -164.14296    37830.761 
   82800    306.78302   -1417.5823    474.00394    436.34465   -201.57245    37830.761 
   82900    302.53358   -1459.1755    457.15588    358.78925   -201.10143    37830.761 
   83000    310.56954   -1486.2205    434.43131    345.16575   -642.80596    37830.761 
   83100    308.16316   -1487.3722    447.23335    345.99211   -10.465683    37830.761 
   83200    295.42151   -1446.0335    484.78968    367.57461    49.330107    37830.761 
   83300    306.21627   -1466.2698     482.5995    393.70341    275.98872    37830.761 
   83400    305.12836   -1461.6837    480.03057     390.8272    -26.35376    37830.761 
   83500    296.19728   -1458.8008    489.66484    363.17198   -9.6129061    37830.761 
   83600    290.43247    -1490.011     479.0176    295.38416   -243.63606    37830.761 
   83700    294.65485   -1463.3039    476.68615    338.75223    84.171658    37830.761 
   83800    296.12262   -1472.1146    466.42866    326.28618   -76.600071    37830.761 
   83900    310.53659   -1485.6216    466.08383    377.26896   -264.54643    37830.761 
   84000       298.38   -1487.0208      469.925    325.03009     147.4669    37830.761 
   84100    298.51706   -1469.2638    464.41445    337.89304   -123.95377    37830.761 
   84200    293.16154   -1442.6441    469.13078    345.13967   -699.18078    37830.761 
   84300    301.76171   -1475.7879     456.8859    338.43499   -207.09153    37830.761 
   84400    300.14455   -1485.1302    460.59193    325.52467    4.2184948    37830.761 
   84500    300.74626   -1455.9583    478.54239    375.35352    50.585653    37830.761 
   84600    309.23633   -1473.2921    495.07231    412.73832    55.520472    37830.761 
   84700    299.32931   -1429.7556    456.19795    372.83821    228.49896    37830.761 
   84800    312.19929   -1446.0813    488.31928    446.52364     154.4061    37830.761 
   84900    297.33144   -1431.1919    480.55208    386.76962    82.010673    37830.761 
   85000    304.17214    -1417.359     456.7799    407.60008    405.47054    37830.761 
   85100    301.77941   -1415.8247    478.87636    420.46825    185.42749    37830.761 
   85200    312.88461   -1423.2208    460.11132    444.25878   -339.37846    37830.761 
   85300    292.44815   -1407.4189    495.04923    403.07448   -996.14517    37830.761 
   85400    295.75466   -1391.4228    466.97773    405.87191   -91.010866    37830.761 
   85500    292.06525   -1399.5517    451.55042    365.72063   -487.00283    37830.761 
   85600    299.58105   -1424.7059    464.77344    387.59585   -72.141787    37830.761 
   85700    303.73192   -1399.5941     471.9911    438.59605    4.5389891    37830.761 
   85800    296.59571   -1357.1126    495.57943    472.56686     10.55198    37830.761 
   85900    296.78672   -1395.9429    479.78346    418.79983    120.94192    37830.761 
   86000    302.14678   -1459.0123    467.71275    367.76946    428.25605    37830.761 
   86100    296.02047    -1391.754    487.41966     427.1783   -263.78505    37830.761 
   86200     303.2446   -1371.9391    482.81386    474.88185   -53.849441    37830.761 
   86300    299.15012   -1395.1832    483.15386    433.56062   -7.6731439    37830.761 
   86400    293.01334   -1449.3107    460.66497    329.34073   -431.50004    37830.761 
   86500    294.49368   -1427.8841    475.54605    372.30698     79.93078    37830.761 
   86600    313.99297   -1453.4726    455.40703    414.28811   -577.67161    37830.761 
   86700     298.9712   -1454.5578    467.56774    357.79502   -528.89324    37830.761 
   86800    296.64471   -1495.8298    428.18985    266.68057   -768.17182    37830.761 
   86900     301.3438   -1442.4266    452.87747    365.90808   -230.16415    37830.761 
   87000    297.01035   -1426.8984    476.39389    385.46066    275.50403    37830.761 
   87100    305.44631   -1428.3542    464.89645    410.45268    624.66824    37830.761 
   87200    291.28536   -1490.0452    457.69167    277.86037     437.6558    37830.761 
   87300    303.97451    -1461.055    487.44896    393.68417     421.4404    37830.761 
   87400    309.52917   -1449.3129    473.71374    416.67618    973.48879    37830.761 
   87500    302.05335    -1464.552    438.08571    332.18252   -28.079222    37830.761 
   87600    300.46428   -1484.9187    440.80583    307.38815   -491.57179    37830.761 
   87700    294.73205   -1479.9503    451.95447    297.72139   -447.10653    37830.761 
   87800    295.50482   -1464.4552    448.79951     313.5375   -238.68966    37830.761 
   87900    297.76488   -1463.9037    464.31144    339.76679     190.4821    37830.761 
   88000    299.53571   -1452.0264    458.98085    354.27881    21.047962    37830.761 
   88100    288.15381   -1474.6633    433.51004    254.97477   -751.56912    37830.761 
   88200    311.13721   -1498.9156    431.91323    332.50597    57.700375    37830.761 
   88300    300.05039   -1471.2297    454.19012    332.59981   -125.65123    37830.761 
   88400    309.95314   -1461.2298    488.10045    421.05301    98.608913    37830.761 
   88500    295.03815   -1488.6434    434.26528    272.71596    14.203831    37830.761 
   88600     300.1752   -1493.0431     469.1284    326.28608    -81.77706    37830.761 
   88700    298.95514   -1457.3131    452.52028    339.92012    3.1299705    37830.761 
   88800    291.23368   -1454.6625    449.23728    304.55626    85.512215    37830.761 
   88900    304.37387   -1469.0398    457.59106    357.63787    21.135792    37830.761 
   89000    297.65709    -1457.531    459.58922    340.93238   -94.587097    37830.761 
   89100    305.83426   -1449.5207    444.28468    370.41941   -569.78553    37830.761 
   89200     294.6743   -1439.2837    449.65853    335.83234   -511.05688    37830.761 
   89300    306.26353    -1446.467    464.01282    395.13214    16.154063    37830.761 
   89400    304.96963   -1430.1106    473.09344    414.74917   -365.85003    37830.761 
   89500    303.38778   -1432.9177    454.72056     386.4539   -3.2187961    37830.761 
   89600    302.12898   -1417.5888    454.72398    396.12418   -490.72954    37830.761 
   89700    290.75139   -1446.7151    442.17892    303.27583   -39.640682    37830.761 
   89800    298.96163    -1464.229    468.59513    349.10822    458.01215    37830.761 
   89900    317.19689    -1460.096    456.73257    423.40166    602.12684    37830.761 
   90000     294.0414   -1447.2233    441.80541    317.19279   -22.801822    37830.761 
   90100    291.10652   -1434.7584    477.11369    351.76469   -294.34026    37830.761 
   90200     296.2518   -1478.8742    443.93743    297.61637   -56.901338    37830.761 
   90300    306.12723    -1478.334    471.04341    369.68265   -192.61464    37830.761 
   90400    312.36173   -1453.9519    467.04198    418.10636   -425.84363    37830.761 
   90500    307.95328   -1456.0046    444.81289     373.9952    66.097964    37830.761 
[...]
  984200     304.2197   -1479.0071    494.35711    383.74313   -241.97164    37830.761 
  984300    303.75742   -1433.7288    453.28443    385.86941   -309.35157    37830.761 
  984400    298.31905   -1472.5358    503.55953    372.87544      245.828    37830.761 
  984500    284.43609   -1472.5787    504.49371    311.32056    107.56726    37830.761 
  984600    306.38955   -1462.3638    483.75095    399.54037   -475.23408    37830.761 
  984700    289.67412   -1429.9344     507.6711    380.70317    320.20961    37830.761 
  984800    302.69436   -1494.4541    482.54003    349.61802    34.440486    37830.761 
  984900    308.44782    -1533.401    472.87479    326.88512    614.88077    37830.761 
  985000    292.21689   -1499.2148     462.4304     277.6196    161.30113    37830.761 
  985100    303.93973   -1502.7415    493.54285    357.93515    790.75067    37830.761 
  985200    300.55747   -1513.9011    440.57306    278.59222    418.05977    37830.761 
  985300    294.41577   -1531.6168    462.98359     255.6614    814.19457    37830.761 
  985400    295.14899   -1511.2324    480.01708    296.37737   -31.217093    37830.761 
  985500    292.84154   -1508.4797    473.31345    282.04746   -224.14551    37830.761 
  985600    301.09267   -1502.0225    496.39807    348.70318    165.58972    37830.761 
  985700    300.22952   -1534.0704    485.00367    301.37835    395.31354    37830.761 
  985800    292.95068   -1539.7498    466.07183    244.02662    133.09913    37830.761 
  985900    295.03613   -1530.3577    457.05033    253.77769   -281.13815    37830.761 
  986000    304.24337   -1505.8173    489.41837    352.10069     193.2209    37830.761 
  986100    303.20253   -1505.9809    472.58187    330.41875   -573.86042    37830.761 
  986200    302.48622   -1531.7063     481.1184    310.00798    -164.3407    37830.761 
  986300    306.74018   -1514.4566    485.35193    350.62566   -295.71232    37830.761 
  986400    305.89815   -1539.4044    479.22134    315.75982   -43.792366    37830.761 
  986500    305.68774   -1513.6957    468.89003    330.19073   -154.77723    37830.761 
  986600    297.25531   -1544.0898    472.74475    265.72195    -288.5821    37830.761 
  986700    297.08037   -1542.9443    456.46071    249.79653    415.81448    37830.761 
  986800    303.73856   -1526.0576     488.3412    328.51247    316.36457    37830.761 
  986900    305.48445   -1529.3204    463.87328    308.63485    705.84915    37830.761 
  987000    299.28286   -1507.3327    489.52856    328.38281    324.49335    37830.761 
  987100     306.0892   -1505.4282    486.34777    357.72174    309.11386    37830.761 
  987200    298.12341   -1491.5248    490.81666    340.26354    324.79951    37830.761 
  987300    292.52078    -1516.145    488.10426    287.73012    422.64179    37830.761 
  987400     305.0757   -1485.2128    466.03831    353.06888   -161.27186    37830.761 
  987500    291.99684   -1465.5288    493.68785    341.57318   -241.00799    37830.761 
  987600    286.64028   -1484.4164    469.77318     274.6769   -480.20173    37830.761 
  987700    299.39717   -1517.3952    495.63552    324.94147   -339.10577    37830.761 
  987800    298.43965    -1502.941    498.96382    338.41699    419.24469    37830.761 
  987900    303.51172   -1489.3716    524.99108    400.82808    49.620712    37830.761 
  988000    291.36989   -1436.2529    472.35437    346.69557    73.739225    37830.761 
  988100    296.75884   -1430.0382       506.17    410.96569   -411.89782    37830.761 
  988200    296.00532   -1408.2861    519.89414    443.05249   -615.39018    37830.761 
  988300    298.40532   -1443.1169    480.32205    379.44494    316.99197    37830.761 
  988400    290.79696   -1452.2912    509.89018    365.61603    132.34612    37830.761 
  988500    293.55448   -1465.6939     498.6723    353.39895   -59.589624    37830.761 
  988600    306.15308    -1473.895    487.58202    390.77652   -130.77186    37830.761 
  988700    296.41415   -1518.7502    457.93329    272.46647    84.397731    37830.761 
  988800    302.93396   -1491.4733    492.95745    364.09396   -64.924247    37830.761 
  988900    296.70042   -1508.7511    482.45726    308.27721    -245.7538    37830.761 
  989000    304.90237    -1512.974    488.11579    346.60558    181.36684    37830.761 
  989100    300.95213   -1502.2184    498.72483    350.20188    49.503691    37830.761 
  989200    294.32784   -1534.8738    468.73835    257.76363   -252.56201    37830.761 
  989300    304.07783   -1523.4869    482.17217    326.44026   -292.49058    37830.761 
  989400    300.59297   -1480.6721     452.3785    323.78635    163.11191    37830.761 
  989500    300.09089   -1487.6124     494.2581    356.46725   -559.49548    37830.761 
  989600    299.23383   -1504.9345    480.55483    321.58678    242.27147    37830.761 
  989700    309.19119   -1498.6371    500.03989    392.15785    412.11145    37830.761 
  989800    305.51946   -1544.9699    463.61594    292.88555    414.05648    37830.761 
  989900    302.87901   -1506.8233    494.47765    350.01699     376.9816    37830.761 
  990000    309.94999   -1537.1296    482.52561    339.56421    433.30462    37830.761 
  990100    291.18666   -1543.1352    470.55802    237.19278   -298.30848    37830.761 
  990200    299.06614   -1545.7872    476.12357    275.54857    453.53708    37830.761 
  990300    292.18121   -1534.0655    479.71287    259.89084    310.30067    37830.761 
  990400    295.56771   -1505.7066    466.09167    289.86112    308.83319    37830.761 
  990500    301.53668   -1535.8072    461.40306    281.92064    89.220294    37830.761 
  990600    292.81435   -1495.2342    470.96889    292.82604    572.94314    37830.761 
  990700    305.12859   -1547.4545    453.60777    278.63465    177.31913    37830.761 
  990800    307.99237   -1522.5946    489.14117    351.90927    -38.66663    37830.761 
  990900    291.71222   -1515.4773    476.83635    273.49299    370.04009    37830.761 
  991000    301.96287     -1528.58    463.67601    293.33776    151.04839    37830.761 
  991100    292.81143   -1547.5914     499.8075    269.29435    43.655664    37830.761 
  991200    293.53613   -1522.3731    482.88552    280.85037     15.91592    37830.761 
  991300    292.66629   -1498.5135    470.68498    288.59684    476.04992    37830.761 
  991400    304.45073   -1538.8079    466.40044    297.02479    118.83174    37830.761 
  991500     293.7635   -1528.9863    472.45103    264.82542    185.26556    37830.761 
  991600    300.18297    -1559.812    474.27817    264.70189    -304.8638    37830.761 
  991700    313.87988    -1537.283    467.01237    341.57438    416.86053    37830.761 
  991800    306.54405   -1550.5455    460.51778    288.82037    286.58029    37830.761 
  991900    302.82004   -1593.5061    479.50796    248.09926    289.47199    37830.761 
  992000    299.77961    -1568.644    460.59834    240.37571    329.97162    37830.761 
  992100    292.24421   -1566.0868    475.51883    223.95884   -67.509804    37830.761 
  992200    298.50956    -1567.875    475.23528    250.06891   -29.739679    37830.761 
  992300    305.42584   -1586.5273    475.33928    262.63036    45.910933    37830.761 
  992400    288.47531   -1585.9558    473.60872    185.22705   -332.27459    37830.761 
  992500    303.67691   -1603.9631    464.88385     226.8724    -198.5393    37830.761 
  992600    294.66873   -1569.5268    451.04209    206.94778   -377.24806    37830.761 
  992700    286.94586    -1572.599    493.39087    211.48654      73.4515    37830.761 
  992800     299.4619   -1559.1768     477.4013    265.21678    5.6657631    37830.761 
  992900    298.02217   -1512.5114    486.25823    314.26321     612.4891    37830.761 
  993000    305.53993   -1497.2206    492.83637    369.94733    503.52471    37830.761 
  993100    288.80606   -1536.0958    474.68794    237.65398    688.64865    37830.761 
  993200     303.5673   -1552.2146    474.59479    287.83873    268.72585    37830.761 
  993300    309.97535   -1498.8919    483.58712    378.97747    691.21012    37830.761 
  993400    298.77267   -1552.1697    489.81802    281.54047    331.72952    37830.761 
  993500    298.86942   -1554.3415    485.52523    275.51109    361.06993    37830.761 
  993600     291.6507   -1538.0065    475.86825    249.71893    403.75365    37830.761 
  993700    299.64132   -1557.5434    474.57983    264.83583    362.44391    37830.761 
  993800    303.98796   -1565.5491    457.60639    259.40797    141.09318    37830.761 
  993900    297.08743   -1543.2642    481.76512    274.81278   -89.210548    37830.761 
  994000    297.83325   -1545.2607    482.62258     277.0285     199.1865    37830.761 
  994100    305.35363   -1522.2588    496.23492    347.46971     304.7827    37830.761 
  994200    295.60887   -1565.6109    476.48001    240.53036    144.50784    37830.761 
  994300    303.50731   -1518.1056    477.14373    324.22682   -87.733308    37830.761 
  994400    306.32741   -1540.5757    456.83069     294.1286    -397.3543    37830.761 
  994500    302.89118   -1518.9089    468.21404     311.7225   -487.51525    37830.761 
  994600    290.09087   -1509.9153     475.1547    270.08039   -774.59132    37830.761 
  994700    301.22209    -1490.585    488.25471     352.5794   -229.69432    37830.761 
  994800    295.40882   -1506.1406    474.18239    296.80315   -265.04255    37830.761 
  994900     302.8797   -1498.5073      460.687    324.54543   -733.25704    37830.761 
  995000    303.04988   -1530.5181    478.41826    311.03129   -718.29541    37830.761 
  995100      291.878   -1560.0789    459.61955    212.42026   -602.73537    37830.761 
  995200    291.44162   -1565.3998    477.46978    222.98676   -283.26864    37830.761 
  995300    291.52917   -1589.6261    461.73111    183.41561   -138.02647    37830.761 
  995400    307.67952   -1550.9228    452.03981    285.07252   -156.47445    37830.761 
  995500    319.47324   -1536.6692    480.24388    380.57884    388.96417    37830.761 
  995600    297.01417   -1562.9589     482.3822    255.40561    510.53624    37830.761 
  995700    291.53139   -1506.1819    477.07342     282.2121    494.09473    37830.761 
  995800    306.58517   -1536.3866    465.60915    308.25559     576.5591    37830.761 
  995900    295.23885   -1505.4617     490.1136    312.64878     418.7225    37830.761 
  996000    292.20703   -1481.5944    480.27423    313.03944    232.87625    37830.761 
  996100     292.4371   -1472.7577    463.67958    306.31637   -425.26747    37830.761 
  996200    301.28201   -1523.5304    464.71767     296.3665    105.16431    37830.761 
  996300    301.97401    -1500.039    464.61134    322.86427   -450.72958    37830.761 
  996400    302.03099   -1565.4338    475.26256    268.37699   -768.52738    37830.761 
  996500    299.47766   -1572.7987    454.82779    229.09232    -482.8684    37830.761 
  996600    305.83241   -1544.3609    455.57364    286.85984   -718.05438    37830.761 
  996700    300.08189   -1520.9999    495.61829    324.39943   -666.06975    37830.761 
  996800    309.60848   -1529.2726    481.98399    345.34348   -304.46242    37830.761 
  996900    297.13248   -1525.4774    480.80249    291.83962   -244.75907    37830.761 
  997000     315.3401   -1477.3725    452.50265    393.54323   -200.53021    37830.761 
  997100    304.64834   -1551.1521    498.36541     317.5344   -157.68807    37830.761 
  997200    305.34961   -1487.1256    470.29895    356.64886   -250.84387    37830.761 
  997300     306.4083   -1487.9932    481.24747    371.49172    136.86124    37830.761 
  997400    297.02092   -1491.2063    492.42314    337.22945    -413.8392    37830.761 
  997500    305.33267   -1480.5512    509.63303    402.48116   -157.97439    37830.761 
  997600    303.45691   -1529.5853    478.02202    313.39874    56.679473    37830.761 
  997700    298.99065   -1512.9198    497.29848    329.25132   -434.96122    37830.761 
  997800    289.20407   -1587.2476    478.02847    191.63302    -502.5217    37830.761 
  997900    301.49568   -1519.6915    469.24415    305.69295   -396.01169    37830.761 
  998000    302.44872   -1498.0612    488.49561    350.86158   -239.69626    37830.761 
  998100    301.05771   -1531.5699    492.94955    315.54998   -545.54753    37830.761 
  998200    300.09036   -1545.1185    492.44496    297.14563   -657.62474    37830.761 
  998300    305.07191   -1531.3581    458.13391    299.00221   -24.071434    37830.761 
  998400     300.5014   -1506.3203    482.59372    327.94148    350.49542    37830.761 
  998500    302.52841   -1547.1551    472.71529    286.34582    646.07587    37830.761 
  998600    298.58485   -1509.8154    502.27438     335.5063    -33.23572    37830.761 
  998700    304.82067   -1490.3276     452.8561    333.62478   -186.80697    37830.761 
  998800    299.68229   -1482.5636    472.65247    338.07246   -342.23597    37830.761 
  998900    302.06452   -1518.4102     468.5112    308.80004   -684.90124    37830.761 
  999000    307.27392   -1497.9332    479.16335     363.3613   -230.35568    37830.761 
  999100    296.02836   -1515.2534    463.60406    279.89881    105.28449    37830.761 
  999200    309.56418   -1523.4247    477.99987      347.008    71.552761    37830.761 
  999300     297.5933   -1524.4772     469.2825    283.39261    129.25127    37830.761 
  999400      297.007   -1522.4692    474.43732    287.91815    137.56604    37830.761 
  999500    299.41676   -1555.5767      476.412     267.6245   -38.034733    37830.761 
  999600    295.43211   -1524.0645    443.70521    248.50688    -532.8532    37830.761 
  999700    297.23599   -1516.3987    468.50721    289.08858   -460.53371    37830.761 
  999800    311.08124    -1482.887    516.45363    432.82327   -289.54707    37830.761 
  999900    293.74105   -1537.7488    467.53828    251.04918    134.88226    37830.761 
 1000000    304.73304   -1530.4001    500.52434    340.82633    68.322964    37830.761 
 1000100    301.46318   -1504.9399    475.24421    326.29848    275.09319    37830.761 
 1000200    306.66102   -1465.2889     503.8558    417.94119    164.31613    37830.761 
 1000300    296.40511   -1509.0483     467.7799    291.97439    409.14951    37830.761 
 1000400    304.60091   -1484.0062    473.54865    359.65031    267.14356    37830.761 
 1000500    287.94036   -1470.4624    470.66154    295.36701    171.15274    37830.761 
 1000600    300.53769   -1480.7452     474.6523    345.73836    145.33043    37830.761 
 1000700    300.05989   -1492.2982    470.10348    327.48738    239.21201    37830.761 
 1000800    293.98693   -1454.4403    493.37944    361.30479    731.31651    37830.761 
 1000900    315.12908   -1495.0767    479.92797    402.31519    628.63258    37830.761 
 1001000     299.7632   -1512.7858    473.39359    308.95539    137.21651    37830.761 
 1001100    299.00364   -1517.3911    491.68954    319.22943    456.10837    37830.761 
 1001200    301.82648   -1495.3032    480.61679    342.94191   -210.34661    37830.761 
 1001300    299.78653    -1480.571    480.93156     348.8131     80.04666    37830.761 
 1001400    302.47896   -1463.0611    493.57751    391.07955   -50.851842    37830.761 
 1001500    309.86205   -1457.6671    474.00494    410.11045    489.38543    37830.761 
 1001600    290.38173   -1439.1957    503.23547    370.18909    540.37304    37830.761 
 1001700     293.4198   -1484.3884    456.82733    292.25358     338.8053    37830.761 
 1001800    297.31306   -1510.8096     484.2065    310.72363    369.85392    37830.761 
 1001900    295.75075   -1506.9685    476.27726    299.60814    187.46648    37830.761 
 1002000    306.69089   -1520.2899    498.24669    357.46538   -383.52385    37830.761 
 1002100    296.28715    -1515.062    483.64652    301.29663     -457.496    37830.761 
 1002200    303.56299   -1491.1119    478.66236    352.98965    317.62382    37830.761 
 1002300     295.9148   -1497.1526    488.59585    322.48057    39.148549    37830.761 
 1002400    293.64888   -1500.2838    457.07496    277.63632    -251.2419    37830.761 
 1002500     296.6106   -1477.2211    503.70665    360.65255   -206.80524    37830.761 
 1002600    312.12472   -1448.9749    511.01218    465.98751    274.41773    37830.761 
 1002700    301.49479   -1473.4322    497.64639    380.35055   -349.54684    37830.761 
 1002800    290.11436   -1446.2691    480.17024    338.84783   -11.284215    37830.761 
 1002900    297.44495   -1457.8847    543.90768    423.94303   -309.20153    37830.761 
 1003000    302.75321   -1498.1802      494.226    357.84252   -55.880147    37830.761 
 1003100    296.48389   -1482.5215    503.77474    354.85029    381.02829    37830.761 
 1003200     297.9898   -1503.0904    509.23967    346.52004   -197.35464    37830.761 
 1003300    299.17609   -1484.1316    500.51057    362.08565   -144.75151    37830.761 
 1003400    306.69037   -1467.6051    502.14016    414.04138    39.555945    37830.761 
 1003500     296.8942   -1476.7601     487.9311    346.61368   -80.386434    37830.761 
 1003600    303.97315   -1515.0222    483.13635    335.39825   -44.467714    37830.761 
 1003700    300.37572   -1485.4391    471.42441    337.08805   -9.5092426    37830.761 
 1003800    300.30722   -1507.2364     511.9616    355.51984    -180.0464    37830.761 
 1003900    291.14084   -1490.3567    490.47347     309.6806   -75.735969    37830.761 
 1004000    306.10152   -1470.8708    478.77503    384.76182   -157.42217    37830.761 
 1004100      303.769   -1507.5086    484.96782    343.82509   -429.80469    37830.761 
 1004200    287.81911   -1482.0465    460.79249    273.36855   -171.27557    37830.761 
 1004300    293.02086   -1494.9313    483.97192    307.06085    -64.70542    37830.761 
 1004400    306.63645   -1467.0002    505.64801    417.91154    660.41514    37830.761 
 1004500    292.33067   -1503.1843      488.087    299.81847    400.68029    37830.761 
 1004600    297.28714   -1501.8089    459.51099    294.91228    206.78631    37830.761 
 1004700    303.88689   -1501.7552    487.46646    352.60734    627.28526    37830.761 
 1004800    303.26581   -1523.8919    484.95839    325.16895     370.9493    37830.761 
 1004900    297.73098   -1473.8194    471.68123    337.06843    508.04339    37830.761 
 1005000    294.15425    -1521.543    450.47284    252.04807    656.79085    37830.761 
 1005100     296.2488   -1504.6873    504.55224     332.4046    50.321971    37830.761 
 1005200    299.53065   -1513.1612     465.9004    300.04079    74.648498    37830.761 
 1005298    292.06835   -1501.8829    468.20059    280.05351   -441.63853    37830.761 
Loop time of 604.391 on 32 procs for 1000000 steps with 1510 atoms

Performance: 142.954 ns/day, 0.168 hours/ns, 1654.559 timesteps/s
100.0% CPU use with 32 MPI tasks x no OpenMP threads

MPI task timing breakdown:
Section |  min time  |  avg time  |  max time  |%varavg| %total
---------------------------------------------------------------
Pair    | 208.29     | 273.49     | 331.39     | 168.0 | 45.25
Bond    | 1.325      | 1.5222     | 1.6926     |   7.7 |  0.25
Neigh   | 39.006     | 39.061     | 39.121     |   0.5 |  6.46
Comm    | 219.83     | 277.82     | 342.78     | 166.4 | 45.97
Output  | 0.38548    | 0.40571    | 0.92591    |  14.7 |  0.07
Modify  | 9.015      | 9.344      | 9.7969     |   6.4 |  1.55
Other   |            | 2.754      |            |       |  0.46

Nlocal:        47.1875 ave          68 max          15 min
Histogram: 2 0 1 3 3 4 8 3 4 4
Nghost:        1964.62 ave        2076 max        1879 min
Histogram: 6 4 5 0 1 3 6 5 1 1
Neighs:        5148.59 ave        9309 max        1192 min
Histogram: 2 0 6 3 6 4 5 4 1 1

Total # of neighbors = 164755
Ave neighs/atom = 109.10927
Ave special neighs/atom = 2.0158940
Neighbor list builds = 49704
Dangerous builds = 0
The system volume is 37830.7606818258
Lattice vectors
33.569769401169 0 0
0 33.569769401169 0
0 0 33.569769401169
Total wall time: 0:10:09
