LAMMPS data file
 1516 atoms
 1017 bonds
 529 angles
 40 dihedrals
 5 impropers
 8 atom types
 10 bond types
 6 angle types
 7 dihedral types
 1 improper types
 0 15 xlo xhi
 0 15 ylo yhi
 0 15 zlo zhi
 0 0 0 xy xz yz

# Atom types
#
# 1 S_3
# 2 C_3
# 3 C_2
# 4 N_2
# 5 C_R
# 6 H_
# 7 H__HB
# 8 O_3

# Bond Coeffs
#
# 1 S_3*C_R
# 2 S_3*C_3
# 3 C_3*C_2
# 4 C_3*C_3
# 5 C_2*N_2
# 6 C_2*C_R
# 7 C_3*H_
# 8 C_2*H_
# 9 N_2*H__HB
# 10 O_3*H__HB

# Angle Coeffs
#
# 1 S_3
# 2 C_3
# 3 C_2
# 4 N_2
# 5 C_R
# 6 O_3

# Dihedral Coeffs
#
# 1 I1
# 2 A1
# 3 B1
# 4 A2
# 5 C1
# 6 C2
# 7 E1

# Inversion Coeffs
#
# 1 1

 Masses

 1 32.06
 2 12.01
 3 12.01
 4 14.01
 5 12.01
 6 1.01
 7 1.01
 8 16

 Atoms # full

1 1 1 0 15.0382896057398 14.2091713794849 3.70492947900549
2 1 2 0 12.8376876515645 15.5773819099572 4.62067647112978
3 1 3 0 10.8543545970115 12.6051593049458 3.54788041829566
4 1 4 0 11.8547120375326 11.7632810274005 3.10804184905517
5 1 4 0 11.1617077729464 13.8254218204826 4.05961253417105
6 1 3 0 13.1664077803414 12.186598294305 3.14906013568037
7 1 3 0 12.4381944243217 14.2658558087433 4.11873766288541
8 1 5 0 13.4749856111059 13.4669802715813 3.64690086786965
9 1 2 0 14.3770608403788 15.5331181556431 4.74439112512787
10 1 6 0 12.3794402641253 15.7729812971809 5.59321853789237
11 1 6 0 12.5236167993261 16.347478732214 3.91226238027318
12 1 6 0 9.13813397712421 12.2892625184319 3.43802076171521
13 1 7 0 11.556630997136 10.5244251238686 2.62302346420754
14 1 6 0 14.1158674838456 11.4674980999518 2.7513613653742
15 1 6 0 14.8209088443996 16.4872028428 4.45340848121329
16 1 6 0 14.6590930482549 15.3192706097765 5.77827249203965
17 2 7 0 2.67991335407831 14.3493516386393 0.773835004074499
18 2 8 0 3.63991335407831 14.3493516386393 0.773835004074499
19 2 7 0 3.87991335407831 13.4193516386393 0.773835004074499
20 3 7 0 12.1898529880866 3.45114360371605 1.81528831017204
21 3 8 0 13.1498529880866 3.45114360371605 1.81528831017204
22 3 7 0 13.3898529880866 2.52114360371605 1.81528831017204
23 4 7 0 11.1750612307526 1.86419707298279 4.84599063405767
24 4 8 0 12.1350612307526 1.86419707298279 4.84599063405767
25 4 7 0 12.3750612307526 0.934197072982788 4.84599063405767
26 5 7 0 12.6116041831858 8.31577794434503 8.67876671254635
27 5 8 0 13.5716041831858 8.31577794434503 8.67876671254635
28 5 7 0 13.8116041831858 7.38577794434503 8.67876671254635
29 6 7 0 5.64188821052201 11.2149277578015 3.67336313822307
30 6 8 0 6.60188821052201 11.2149277578015 3.67336313822307
31 6 7 0 6.84188821052201 10.2849277578015 3.67336313822307
32 7 7 0 5.58419052788056 10.6211448138952 8.65715994383208
33 7 8 0 6.54419052788056 10.6211448138952 8.65715994383208
34 7 7 0 6.78419052788056 9.69114481389523 8.65715994383208
35 8 7 0 3.55392779965885 3.96466400631703 11.7925655515864
36 8 8 0 4.51392779965885 3.96466400631703 11.7925655515864
37 8 7 0 4.75392779965885 3.03466400631703 11.7925655515864
38 9 7 0 5.64065692990087 5.52214879350737 8.44787194859236
39 9 8 0 6.60065692990087 5.52214879350737 8.44787194859236
40 9 7 0 6.84065692990087 4.59214879350737 8.44787194859236
41 10 7 0 5.65558548012748 2.98302196007222 10.2481770410668
42 10 8 0 6.61558548012748 2.98302196007222 10.2481770410668
43 10 7 0 6.85558548012748 2.05302196007222 10.2481770410668
44 11 7 0 11.3071195925307 10.1988148204423 2.45747954235412
45 11 8 0 12.2671195925307 10.1988148204423 2.45747954235412
46 11 7 0 12.5071195925307 9.26881482044235 2.45747954235412
47 12 7 0 8.45734310030937 7.6639941792842 9.0082368417643
48 12 8 0 9.41734310030937 7.6639941792842 9.0082368417643
49 12 7 0 9.65734310030937 6.7339941792842 9.0082368417643
50 13 7 0 13.6641042404529 8.5774080261495 1.43888634745963
51 13 8 0 14.6241042404529 8.5774080261495 1.43888634745963
52 13 7 0 14.8641042404529 7.6474080261495 1.43888634745963
53 14 7 0 0.978013138957322 3.92324585508555 12.8144888067618
54 14 8 0 1.93801313895732 3.92324585508555 12.8144888067618
55 14 7 0 2.17801313895732 2.99324585508555 12.8144888067618
56 15 7 0 -0.232564575998113 14.3495987650845 12.323101318907
57 15 8 0 0.727435424001887 14.3495987650845 12.323101318907
58 15 7 0 0.967435424001887 13.4195987650845 12.323101318907
59 16 7 0 3.0962686151918 7.78675479273312 11.5385397139471
60 16 8 0 4.0562686151918 7.78675479273312 11.5385397139471
61 16 7 0 4.2962686151918 6.85675479273312 11.5385397139471
62 17 7 0 4.90651972984895 15.1632062629238 11.081443077419
63 17 8 0 5.86651972984895 15.1632062629238 11.081443077419
64 17 7 0 6.10651972984895 14.2332062629238 11.081443077419
65 18 7 0 -0.117002920741215 14.4341228126455 14.9099214433227
66 18 8 0 0.842997079258785 14.4341228126455 14.9099214433227
67 18 7 0 1.08299707925878 13.5041228126455 14.9099214433227
68 19 7 0 7.8102674851846 5.90779746923596 0.643111296230927
69 19 8 0 8.7702674851846 5.90779746923596 0.643111296230927
70 19 7 0 9.0102674851846 4.97779746923596 0.643111296230927
71 20 7 0 12.4364579845872 12.5030544113275 14.9047330836765
72 20 8 0 13.3964579845872 12.5030544113275 14.9047330836765
73 20 7 0 13.6364579845872 11.5730544113275 14.9047330836765
74 21 7 0 8.81219411429018 14.2081552701443 1.42055083299056
75 21 8 0 9.77219411429018 14.2081552701443 1.42055083299056
76 21 7 0 10.0121941142902 13.2781552701443 1.42055083299056
77 22 7 0 10.2924300105963 4.25507667748257 4.65069616679102
78 22 8 0 11.2524300105963 4.25507667748257 4.65069616679102
79 22 7 0 11.4924300105963 3.32507667748258 4.65069616679102
80 23 7 0 10.9123777427897 3.22691824328154 5.12391205178574
81 23 8 0 11.8723777427897 3.22691824328154 5.12391205178574
82 23 7 0 12.1123777427897 2.29691824328154 5.12391205178574
83 24 7 0 8.13975606157444 8.5646474726405 5.3226724115666
84 24 8 0 9.09975606157444 8.5646474726405 5.3226724115666
85 24 7 0 9.33975606157444 7.6346474726405 5.3226724115666
86 25 7 0 1.94474357689731 0.492167170569301 9.9980824906379
87 25 8 0 2.90474357689731 0.492167170569301 9.9980824906379
88 25 7 0 3.14474357689731 -0.437832829430699 9.9980824906379
89 26 7 0 6.81430044860579 1.14000618848018 4.08658687840216
90 26 8 0 7.77430044860579 1.14000618848018 4.08658687840216
91 26 7 0 8.01430044860579 0.210006188480183 4.08658687840216
92 27 7 0 0.292401510961354 14.1396649511904 11.9020663714036
93 27 8 0 1.25240151096135 14.1396649511904 11.9020663714036
94 27 7 0 1.49240151096135 13.2096649511904 11.9020663714036
95 28 7 0 0.397849561851472 3.2954167625308 0.728543397272006
96 28 8 0 1.35784956185147 3.2954167625308 0.728543397272006
97 28 7 0 1.59784956185147 2.3654167625308 0.728543397272006
98 29 7 0 10.9784690877143 3.92765682464466 7.62462146230973
99 29 8 0 11.9384690877143 3.92765682464466 7.62462146230973
100 29 7 0 12.1784690877143 2.99765682464465 7.62462146230973
101 30 7 0 1.11483109460212 1.00023654214107 10.2211835794151
102 30 8 0 2.07483109460212 1.00023654214107 10.2211835794151
103 30 7 0 2.31483109460212 0.070236542141065 10.2211835794151
104 31 7 0 0.998857950763777 14.0590886228625 0.470259025460109
105 31 8 0 1.95885795076378 14.0590886228625 0.470259025460109
106 31 7 0 2.19885795076378 13.1290886228625 0.470259025460109
107 32 7 0 12.8740298263449 14.2981160121877 12.1036748355255
108 32 8 0 13.8340298263449 14.2981160121877 12.1036748355255
109 32 7 0 14.0740298263449 13.3681160121877 12.1036748355255
110 33 7 0 13.5461680269521 12.9293346385844 7.02269284171052
111 33 8 0 14.5061680269521 12.9293346385844 7.02269284171052
112 33 7 0 14.7461680269521 11.9993346385844 7.02269284171052
113 34 7 0 6.18564742893912 10.4734512026794 10.0159271643497
114 34 8 0 7.14564742893912 10.4734512026794 10.0159271643497
115 34 7 0 7.38564742893912 9.54345120267943 10.0159271643497
116 35 7 0 4.61701626467519 1.8575064876955 7.13962646084838
117 35 8 0 5.57701626467519 1.8575064876955 7.13962646084838
118 35 7 0 5.81701626467519 0.9275064876955 7.13962646084838
119 36 7 0 4.70419885983691 15.1699707696121 14.0553967212327
120 36 8 0 5.66419885983691 15.1699707696121 14.0553967212327
121 36 7 0 5.90419885983691 14.2399707696121 14.0553967212327
122 37 7 0 11.8709823796246 11.028825168442 3.16257293801755
123 37 8 0 12.8309823796246 11.028825168442 3.16257293801755
124 37 7 0 13.0709823796246 10.098825168442 3.16257293801755
125 38 7 0 1.29390910078771 7.71443851565942 9.8764550301712
126 38 8 0 2.25390910078771 7.71443851565942 9.8764550301712
127 38 7 0 2.49390910078771 6.78443851565942 9.8764550301712
128 39 7 0 11.2534949804842 14.7954297675192 2.11864404729567
129 39 8 0 12.2134949804842 14.7954297675192 2.11864404729567
130 39 7 0 12.4534949804842 13.8654297675192 2.11864404729567
131 40 7 0 8.71417547852732 7.52206401009113 0.815894859842956
132 40 8 0 9.67417547852732 7.52206401009113 0.815894859842956
133 40 7 0 9.91417547852732 6.59206401009113 0.815894859842956
134 41 7 0 11.7741889126785 1.04431671597064 7.74436070001684
135 41 8 0 12.7341889126785 1.04431671597064 7.74436070001684
136 41 7 0 12.9741889126785 0.114316715970635 7.74436070001684
137 42 7 0 14.0352445472684 14.5113442108873 3.89221692807041
138 42 8 0 14.9952445472684 14.5113442108873 3.89221692807041
139 42 7 0 15.2352445472684 13.5813442108873 3.89221692807041
140 43 7 0 3.06304139594547 9.42368435830809 11.1728362762369
141 43 8 0 4.02304139594547 9.42368435830809 11.1728362762369
142 43 7 0 4.26304139594547 8.49368435830809 11.1728362762369
143 44 7 0 -0.386298979427665 10.8913534348272 12.9760282463394
144 44 8 0 0.573701020572335 10.8913534348272 12.9760282463394
145 44 7 0 0.813701020572335 9.96135343482718 12.9760282463394
146 45 7 0 9.3987396759633 4.11270296242088 6.279092640616
147 45 8 0 10.3587396759633 4.11270296242088 6.279092640616
148 45 7 0 10.5987396759633 3.18270296242088 6.279092640616
149 46 7 0 11.6917132555693 9.53107839025557 10.1061874686275
150 46 8 0 12.6517132555693 9.53107839025557 10.1061874686275
151 46 7 0 12.8917132555693 8.60107839025557 10.1061874686275
152 47 7 0 -0.123510200791061 4.26105937262997 6.58034361549653
153 47 8 0 0.836489799208939 4.26105937262997 6.58034361549653
154 47 7 0 1.07648979920894 3.33105937262997 6.58034361549653
155 48 7 0 9.27626057920977 9.67917546438053 12.8174104832578
156 48 8 0 10.2362605792098 9.67917546438053 12.8174104832578
157 48 7 0 10.4762605792098 8.74917546438053 12.8174104832578
158 49 7 0 12.5014492256753 9.72633928450756 12.4196714465506
159 49 8 0 13.4614492256753 9.72633928450756 12.4196714465506
160 49 7 0 13.7014492256753 8.79633928450756 12.4196714465506
161 50 7 0 2.13907542449422 9.79861404671334 14.2270078277215
162 50 8 0 3.09907542449422 9.79861404671334 14.2270078277215
163 50 7 0 3.33907542449422 8.86861404671334 14.2270078277215
164 51 7 0 7.27926523352042 0.595325309960172 12.0163029106334
165 51 8 0 8.23926523352042 0.595325309960172 12.0163029106334
166 51 7 0 8.47926523352042 -0.334674690039828 12.0163029106334
167 52 7 0 5.49243289089762 4.76988822844811 14.5484149886761
168 52 8 0 6.45243289089762 4.76988822844811 14.5484149886761
169 52 7 0 6.69243289089762 3.83988822844811 14.5484149886761
170 53 7 0 4.26419563053176 12.0757417256851 2.65866227913648
171 53 8 0 5.22419563053176 12.0757417256851 2.65866227913648
172 53 7 0 5.46419563053176 11.1457417256851 2.65866227913648
173 54 7 0 5.06790800180286 1.89909202553332 11.8496314447839
174 54 8 0 6.02790800180286 1.89909202553332 11.8496314447839
175 54 7 0 6.26790800180286 0.969092025533318 11.8496314447839
176 55 7 0 7.73009258016944 12.3410727041215 3.23007413302548
177 55 8 0 8.69009258016944 12.3410727041215 3.23007413302548
178 55 7 0 8.93009258016944 11.4110727041215 3.23007413302548
179 56 7 0 2.62893956780434 1.14201031549834 6.10027548624203
180 56 8 0 3.58893956780434 1.14201031549834 6.10027548624203
181 56 7 0 3.82893956780434 0.212010315498337 6.10027548624203
182 57 7 0 3.22398612901568 10.6253484885115 5.18240311648697
183 57 8 0 4.18398612901568 10.6253484885115 5.18240311648697
184 57 7 0 4.42398612901568 9.69534848851152 5.18240311648697
185 58 7 0 3.72615387939848 7.21527313156053 14.0543182601687
186 58 8 0 4.68615387939848 7.21527313156053 14.0543182601687
187 58 7 0 4.92615387939848 6.28527313156053 14.0543182601687
188 59 7 0 1.79807570806704 2.23072000936605 5.01359969959594
189 59 8 0 2.75807570806704 2.23072000936605 5.01359969959594
190 59 7 0 2.99807570806705 1.30072000936605 5.01359969959594
191 60 7 0 2.75720023593865 11.1143278066907 3.5011330107227
192 60 8 0 3.71720023593865 11.1143278066907 3.5011330107227
193 60 7 0 3.95720023593865 10.1843278066907 3.5011330107227
194 61 7 0 9.50580348537303 8.86119564104825 0.516027063131332
195 61 8 0 10.465803485373 8.86119564104825 0.516027063131332
196 61 7 0 10.705803485373 7.93119564104825 0.516027063131332
197 62 7 0 2.27683068296872 5.00296018476598 4.00081015541218
198 62 8 0 3.23683068296872 5.00296018476598 4.00081015541218
199 62 7 0 3.47683068296872 4.07296018476598 4.00081015541218
200 63 7 0 8.6973249125015 12.3594689559564 2.571962432703
201 63 8 0 9.6573249125015 12.3594689559564 2.571962432703
202 63 7 0 9.8973249125015 11.4294689559564 2.571962432703
203 64 7 0 0.0206696572434157 13.3789463298768 10.8000410604291
204 64 8 0 0.980669657243416 13.3789463298768 10.8000410604291
205 64 7 0 1.22066965724342 12.4489463298768 10.8000410604291
206 65 7 0 6.27148764484562 1.0764476102218 7.96219774405472
207 65 8 0 7.23148764484562 1.0764476102218 7.96219774405472
208 65 7 0 7.47148764484562 0.146447610221803 7.96219774405472
209 66 7 0 4.51687452776358 14.0296638295427 11.3853988365736
210 66 8 0 5.47687452776358 14.0296638295427 11.3853988365736
211 66 7 0 5.71687452776358 13.0996638295427 11.3853988365736
212 67 7 0 12.7242474832758 9.81757184065878 2.21530209411867
213 67 8 0 13.6842474832758 9.81757184065878 2.21530209411867
214 67 7 0 13.9242474832758 8.88757184065878 2.21530209411867
215 68 7 0 10.4956785931438 4.50659495353699 10.7748326542787
216 68 8 0 11.4556785931438 4.50659495353699 10.7748326542787
217 68 7 0 11.6956785931438 3.57659495353699 10.7748326542787
218 69 7 0 13.3835202133935 7.97063728486188 2.99592180526815
219 69 8 0 14.3435202133935 7.97063728486188 2.99592180526815
220 69 7 0 14.5835202133935 7.04063728486188 2.99592180526815
221 70 7 0 7.63769922821783 3.4731000933703 1.43844295176677
222 70 8 0 8.59769922821783 3.4731000933703 1.43844295176677
223 70 7 0 8.83769922821783 2.5431000933703 1.43844295176677
224 71 7 0 6.86495114045218 4.59989504929632 8.83117972640321
225 71 8 0 7.82495114045218 4.59989504929632 8.83117972640321
226 71 7 0 8.06495114045218 3.66989504929632 8.83117972640321
227 72 7 0 12.7025658921059 11.2589913983271 7.80362171935849
228 72 8 0 13.6625658921059 11.2589913983271 7.80362171935849
229 72 7 0 13.9025658921059 10.3289913983271 7.80362171935849
230 73 7 0 3.40354019237682 8.07961603784002 6.29955739947036
231 73 8 0 4.36354019237682 8.07961603784002 6.29955739947036
232 73 7 0 4.60354019237682 7.14961603784002 6.29955739947036
233 74 7 0 4.50737557883374 2.197371619232 2.80188932432793
234 74 8 0 5.46737557883374 2.197371619232 2.80188932432793
235 74 7 0 5.70737557883374 1.267371619232 2.80188932432793
236 75 7 0 6.91086201972328 7.91097075952217 8.97577762487344
237 75 8 0 7.87086201972328 7.91097075952217 8.97577762487344
238 75 7 0 8.11086201972328 6.98097075952217 8.97577762487344
239 76 7 0 1.59560620595701 5.99142386036925 5.67337224958465
240 76 8 0 2.55560620595701 5.99142386036925 5.67337224958465
241 76 7 0 2.79560620595701 5.06142386036925 5.67337224958465
242 77 7 0 5.95507087346166 7.40343998460099 14.1048593411688
243 77 8 0 6.91507087346166 7.40343998460099 14.1048593411688
244 77 7 0 7.15507087346166 6.47343998460099 14.1048593411688
245 78 7 0 3.01290223767981 4.90223995683715 4.78411746444181
246 78 8 0 3.97290223767981 4.90223995683715 4.78411746444181
247 78 7 0 4.21290223767981 3.97223995683715 4.78411746444181
248 79 7 0 10.7139280687273 13.8532870453224 7.17749353847466
249 79 8 0 11.6739280687273 13.8532870453224 7.17749353847466
250 79 7 0 11.9139280687273 12.9232870453224 7.17749353847466
251 80 7 0 10.1914663791843 12.6251155444793 7.56835852749646
252 80 8 0 11.1514663791843 12.6251155444793 7.56835852749646
253 80 7 0 11.3914663791843 11.6951155444793 7.56835852749646
254 81 7 0 12.1966371992324 10.9181436213572 1.29874837235548
255 81 8 0 13.1566371992324 10.9181436213572 1.29874837235548
256 81 7 0 13.3966371992324 9.98814362135716 1.29874837235548
257 82 7 0 11.3450142501108 14.3446996125299 11.3515853276476
258 82 8 0 12.3050142501108 14.3446996125299 11.3515853276476
259 82 7 0 12.5450142501108 13.4146996125299 11.3515853276476
260 83 7 0 3.51807392944582 9.08302841516212 4.35342252021655
261 83 8 0 4.47807392944582 9.08302841516212 4.35342252021655
262 83 7 0 4.71807392944582 8.15302841516212 4.35342252021655
263 84 7 0 11.3349933495931 9.80804216157645 4.30302055785432
264 84 8 0 12.2949933495931 9.80804216157645 4.30302055785432
265 84 7 0 12.5349933495931 8.87804216157645 4.30302055785432
266 85 7 0 7.34346308556385 11.0312812965736 10.371732423082
267 85 8 0 8.30346308556385 11.0312812965736 10.371732423082
268 85 7 0 8.54346308556385 10.1012812965736 10.371732423082
269 86 7 0 7.72070137361996 6.37255998136476 7.77439687983133
270 86 8 0 8.68070137361996 6.37255998136476 7.77439687983133
271 86 7 0 8.92070137361996 5.44255998136476 7.77439687983133
272 87 7 0 10.5841073642671 9.75163790089078 3.7503854802344
273 87 8 0 11.5441073642671 9.75163790089078 3.7503854802344
274 87 7 0 11.7841073642671 8.82163790089078 3.7503854802344
275 88 7 0 2.96167131557129 6.18081139092334 11.6197230247781
276 88 8 0 3.92167131557129 6.18081139092334 11.6197230247781
277 88 7 0 4.16167131557129 5.25081139092334 11.6197230247781
278 89 7 0 3.85424693042412 0.887468624105677 2.63530347961932
279 89 8 0 4.81424693042412 0.887468624105677 2.63530347961932
280 89 7 0 5.05424693042412 -0.042531375894323 2.63530347961932
281 90 7 0 2.19393676539883 3.04150695487857 10.9167962009087
282 90 8 0 3.15393676539883 3.04150695487857 10.9167962009087
283 90 7 0 3.39393676539883 2.11150695487857 10.9167962009087
284 91 7 0 13.8485639837757 6.89534348360263 7.3134635319002
285 91 8 0 14.8085639837757 6.89534348360263 7.3134635319002
286 91 7 0 15.0485639837757 5.96534348360263 7.3134635319002
287 92 7 0 7.01433650610968 11.9036597972177 7.74603200261481
288 92 8 0 7.97433650610968 11.9036597972177 7.74603200261481
289 92 7 0 8.21433650610969 10.9736597972177 7.74603200261481
290 93 7 0 2.41097710954025 8.22318637435325 3.71931827045046
291 93 8 0 3.37097710954025 8.22318637435325 3.71931827045046
292 93 7 0 3.61097710954025 7.29318637435324 3.71931827045046
293 94 7 0 10.7552425148617 7.6796582519915 8.92483393661678
294 94 8 0 11.7152425148617 7.6796582519915 8.92483393661678
295 94 7 0 11.9552425148617 6.7496582519915 8.92483393661678
296 95 7 0 8.521577249486 6.46456732572056 3.25394268147647
297 95 8 0 9.481577249486 6.46456732572056 3.25394268147647
298 95 7 0 9.721577249486 5.53456732572056 3.25394268147647
299 96 7 0 8.34308486592025 4.45073415799066 3.43085677712224
300 96 8 0 9.30308486592025 4.45073415799066 3.43085677712224
301 96 7 0 9.54308486592025 3.52073415799066 3.43085677712224
302 97 7 0 5.18012259199284 12.1945245358534 14.420917670941
303 97 8 0 6.14012259199284 12.1945245358534 14.420917670941
304 97 7 0 6.38012259199284 11.2645245358534 14.420917670941
305 98 7 0 9.9754964180477 1.21312849031761 2.34021750977263
306 98 8 0 10.9354964180477 1.21312849031761 2.34021750977263
307 98 7 0 11.1754964180477 0.283128490317613 2.34021750977263
308 99 7 0 2.71830877100118 10.1665336002503 12.4942745477892
309 99 8 0 3.67830877100118 10.1665336002503 12.4942745477892
310 99 7 0 3.91830877100118 9.23653360025026 12.4942745477892
311 100 7 0 9.16432605983689 11.9661448038556 3.62381079699844
312 100 8 0 10.1243260598369 11.9661448038556 3.62381079699844
313 100 7 0 10.3643260598369 11.0361448038556 3.62381079699844
314 101 7 0 1.56841957636178 13.8233163072169 7.22490785177797
315 101 8 0 2.52841957636178 13.8233163072169 7.22490785177797
316 101 7 0 2.76841957636178 12.8933163072169 7.22490785177797
317 102 7 0 1.57704328696243 7.02130099683069 8.39494186802767
318 102 8 0 2.53704328696243 7.02130099683069 8.39494186802767
319 102 7 0 2.77704328696244 6.09130099683069 8.39494186802767
320 103 7 0 9.04479927543551 10.5325763408933 0.299298682948574
321 103 8 0 10.0047992754355 10.5325763408933 0.299298682948574
322 103 7 0 10.2447992754355 9.60257634089328 0.299298682948574
323 104 7 0 3.98684296335094 1.27450305893086 12.6329170761164
324 104 8 0 4.94684296335094 1.27450305893086 12.6329170761164
325 104 7 0 5.18684296335094 0.344503058930859 12.6329170761164
326 105 7 0 2.48104265701957 4.78118567535654 14.3482937396038
327 105 8 0 3.44104265701957 4.78118567535654 14.3482937396038
328 105 7 0 3.68104265701957 3.85118567535654 14.3482937396038
329 106 7 0 1.45585736769252 2.16131606645882 14.7291971091181
330 106 8 0 2.41585736769252 2.16131606645882 14.7291971091181
331 106 7 0 2.65585736769252 1.23131606645882 14.7291971091181
332 107 7 0 12.2403669047356 11.7082061680872 10.8207435510121
333 107 8 0 13.2003669047356 11.7082061680872 10.8207435510121
334 107 7 0 13.4403669047356 10.7782061680872 10.8207435510121
335 108 7 0 4.49078714984469 4.18552170315757 11.9327796797734
336 108 8 0 5.45078714984469 4.18552170315757 11.9327796797734
337 108 7 0 5.69078714984469 3.25552170315757 11.9327796797734
338 109 7 0 12.3091442025919 3.78049322561361 0.93583941925317
339 109 8 0 13.2691442025919 3.78049322561361 0.93583941925317
340 109 7 0 13.5091442025919 2.85049322561361 0.93583941925317
341 110 7 0 4.36945917128585 1.65259504731745 14.5269075315446
342 110 8 0 5.32945917128585 1.65259504731745 14.5269075315446
343 110 7 0 5.56945917128585 0.722595047317445 14.5269075315446
344 111 7 0 5.38362546751276 11.0484576811455 7.4285085615702
345 111 8 0 6.34362546751276 11.0484576811455 7.4285085615702
346 111 7 0 6.58362546751276 10.1184576811455 7.4285085615702
347 112 7 0 5.73578355411999 5.88184571749531 4.62003971566446
348 112 8 0 6.69578355411999 5.88184571749531 4.62003971566446
349 112 7 0 6.93578355411999 4.95184571749531 4.62003971566446
350 113 7 0 13.5909011056367 12.1048075500317 3.73977605486289
351 113 8 0 14.5509011056367 12.1048075500317 3.73977605486289
352 113 7 0 14.7909011056367 11.1748075500317 3.73977605486289
353 114 7 0 -0.000438032001256916 4.98785215005279 9.78864263975993
354 114 8 0 0.959561967998743 4.98785215005279 9.78864263975993
355 114 7 0 1.19956196799874 4.05785215005279 9.78864263975993
356 115 7 0 6.0682537690457 11.3555712734256 5.7889586314559
357 115 8 0 7.0282537690457 11.3555712734256 5.7889586314559
358 115 7 0 7.2682537690457 10.4255712734256 5.7889586314559
359 116 7 0 8.56278421517461 6.14989237667993 0.473178836982697
360 116 8 0 9.52278421517462 6.14989237667993 0.473178836982697
361 116 7 0 9.76278421517462 5.21989237667993 0.473178836982697
362 117 7 0 13.0479142062552 12.1618722977024 14.957830166677
363 117 8 0 14.0079142062552 12.1618722977024 14.957830166677
364 117 7 0 14.2479142062552 11.2318722977024 14.957830166677
365 118 7 0 13.9217107328307 6.76133610581979 11.1593582772184
366 118 8 0 14.8817107328307 6.76133610581979 11.1593582772184
367 118 7 0 15.1217107328307 5.83133610581979 11.1593582772184
368 119 7 0 1.98149477175437 1.65452604572289 9.91609372431412
369 119 8 0 2.94149477175437 1.65452604572289 9.91609372431412
370 119 7 0 3.18149477175437 0.724526045722887 9.91609372431412
371 120 7 0 2.12010043716989 14.9131443076208 1.35927086113952
372 120 8 0 3.08010043716989 14.9131443076208 1.35927086113952
373 120 7 0 3.3201004371699 13.9831443076208 1.35927086113952
374 121 7 0 3.18783936716616 12.134252945371 6.14481952856295
375 121 8 0 4.14783936716616 12.134252945371 6.14481952856295
376 121 7 0 4.38783936716616 11.204252945371 6.14481952856295
377 122 7 0 4.12495416283608 6.33780854445882 7.65134797431529
378 122 8 0 5.08495416283608 6.33780854445882 7.65134797431529
379 122 7 0 5.32495416283608 5.40780854445882 7.65134797431529
380 123 7 0 4.25023881878704 10.2551637116726 11.1006539070513
381 123 8 0 5.21023881878704 10.2551637116726 11.1006539070513
382 123 7 0 5.45023881878704 9.32516371167265 11.1006539070513
383 124 7 0 5.80513782028109 11.4990811519697 11.4308078004979
384 124 8 0 6.76513782028109 11.4990811519697 11.4308078004979
385 124 7 0 7.00513782028109 10.5690811519697 11.4308078004979
386 125 7 0 2.80977555943653 2.62172884581611 2.25447164964862
387 125 8 0 3.76977555943653 2.62172884581611 2.25447164964862
388 125 7 0 4.00977555943653 1.69172884581611 2.25447164964862
389 126 7 0 6.45857762589119 6.57526771462522 7.30604470591061
390 126 8 0 7.41857762589119 6.57526771462522 7.30604470591061
391 126 7 0 7.65857762589119 5.64526771462522 7.30604470591061
392 127 7 0 13.1565910081565 1.85092292883433 12.1447701472789
393 127 8 0 14.1165910081565 1.85092292883433 12.1447701472789
394 127 7 0 14.3565910081565 0.920922928834334 12.1447701472789
395 128 7 0 11.286862394046 15.0729487072118 8.25715944520198
396 128 8 0 12.246862394046 15.0729487072118 8.25715944520198
397 128 7 0 12.486862394046 14.1429487072118 8.25715944520198
398 129 7 0 7.97980630581267 7.37577167497016 3.6976589995902
399 129 8 0 8.93980630581267 7.37577167497016 3.6976589995902
400 129 7 0 9.17980630581267 6.44577167497016 3.6976589995902
401 130 7 0 11.386593225617 10.8300891161803 3.73616469791159
402 130 8 0 12.346593225617 10.8300891161803 3.73616469791159
403 130 7 0 12.586593225617 9.90008911618032 3.73616469791159
404 131 7 0 9.73448455726728 4.82949295820668 11.3933221867774
405 131 8 0 10.6944845572673 4.82949295820668 11.3933221867774
406 131 7 0 10.9344845572673 3.89949295820668 11.3933221867774
407 132 7 0 12.2010934066214 0.409316175328568 6.25719120260328
408 132 8 0 13.1610934066214 0.409316175328568 6.25719120260328
409 132 7 0 13.4010934066214 -0.520683824671432 6.25719120260328
410 133 7 0 1.83580653436482 3.00672995316796 4.55797766684555
411 133 8 0 2.79580653436482 3.00672995316796 4.55797766684555
412 133 7 0 3.03580653436482 2.07672995316796 4.55797766684555
413 134 7 0 0.301271946374327 10.7434882495459 13.330703160027
414 134 8 0 1.26127194637433 10.7434882495459 13.330703160027
415 134 7 0 1.50127194637433 9.81348824954592 13.330703160027
416 135 7 0 2.54023763394915 3.47959700430743 7.59832788608037
417 135 8 0 3.50023763394915 3.47959700430743 7.59832788608037
418 135 7 0 3.74023763394915 2.54959700430743 7.59832788608037
419 136 7 0 3.60654198026285 10.1209003296122 10.1652272511274
420 136 8 0 4.56654198026285 10.1209003296122 10.1652272511274
421 136 7 0 4.80654198026285 9.1909003296122 10.1652272511274
422 137 7 0 7.45607402452268 13.7275399912056 1.69394586584531
423 137 8 0 8.41607402452268 13.7275399912056 1.69394586584531
424 137 7 0 8.65607402452268 12.7975399912056 1.69394586584531
425 138 7 0 13.8917474860512 9.07658326946199 5.62175266910344
426 138 8 0 14.8517474860512 9.07658326946199 5.62175266910344
427 138 7 0 15.0917474860512 8.14658326946199 5.62175266910344
428 139 7 0 7.71189286300913 5.32650382997468 6.29746145918034
429 139 8 0 8.67189286300913 5.32650382997468 6.29746145918034
430 139 7 0 8.91189286300913 4.39650382997468 6.29746145918034
431 140 7 0 4.2487327654101 12.1355523534026 10.82304223557
432 140 8 0 5.2087327654101 12.1355523534026 10.82304223557
433 140 7 0 5.4487327654101 11.2055523534026 10.82304223557
434 141 7 0 -0.44181465709582 11.014154005507 11.3163502165116
435 141 8 0 0.51818534290418 11.014154005507 11.3163502165116
436 141 7 0 0.75818534290418 10.084154005507 11.3163502165116
437 142 7 0 6.11241128688678 14.2771413053293 13.4046852006577
438 142 8 0 7.07241128688678 14.2771413053293 13.4046852006577
439 142 7 0 7.31241128688678 13.3471413053293 13.4046852006577
440 143 7 0 10.8829485350009 1.68974342913367 9.46397756924853
441 143 8 0 11.8429485350009 1.68974342913367 9.46397756924853
442 143 7 0 12.0829485350009 0.759743429133668 9.46397756924853
443 144 7 0 3.16613868271932 7.2861210528668 10.218001519097
444 144 8 0 4.12613868271932 7.2861210528668 10.218001519097
445 144 7 0 4.36613868271932 6.3561210528668 10.218001519097
446 145 7 0 3.30675336459652 3.46599292749539 14.2401559988502
447 145 8 0 4.26675336459652 3.46599292749539 14.2401559988502
448 145 7 0 4.50675336459652 2.53599292749539 14.2401559988502
449 146 7 0 2.23003889710642 11.0484869095404 13.8987706659827
450 146 8 0 3.19003889710642 11.0484869095404 13.8987706659827
451 146 7 0 3.43003889710642 10.1184869095404 13.8987706659827
452 147 7 0 12.8637488248944 9.57643752725795 13.9307982847095
453 147 8 0 13.8237488248944 9.57643752725795 13.9307982847095
454 147 7 0 14.0637488248944 8.64643752725795 13.9307982847095
455 148 7 0 1.20478817654774 12.4824101435393 1.641242117621
456 148 8 0 2.16478817654774 12.4824101435393 1.641242117621
457 148 7 0 2.40478817654774 11.5524101435393 1.641242117621
458 149 7 0 0.220731328446418 14.8943051350676 11.3957765512168
459 149 8 0 1.18073132844642 14.8943051350676 11.3957765512168
460 149 7 0 1.42073132844642 13.9643051350676 11.3957765512168
461 150 7 0 12.4157495952398 2.92394722154364 3.54497402440757
462 150 8 0 13.3757495952398 2.92394722154364 3.54497402440757
463 150 7 0 13.6157495952398 1.99394722154364 3.54497402440757
464 151 7 0 9.01089374019764 3.46724774380215 10.801378749311
465 151 8 0 9.97089374019764 3.46724774380215 10.801378749311
466 151 7 0 10.2108937401976 2.53724774380215 10.801378749311
467 152 7 0 2.67596250210889 11.8846548899915 0.157376755960286
468 152 8 0 3.63596250210889 11.8846548899915 0.157376755960286
469 152 7 0 3.87596250210889 10.9546548899915 0.157376755960286
470 153 7 0 6.52551177816466 8.4850840623863 1.38978997827508
471 153 8 0 7.48551177816466 8.4850840623863 1.38978997827508
472 153 7 0 7.72551177816466 7.5550840623863 1.38978997827508
473 154 7 0 11.4381711655017 14.1723799209017 12.099721385166