LAMMPS (29 Sep 2021 - Update 1)
# Test LAMMPS input file for single DeFDe

# Initialize simulation

clear

units real
atom_style full
boundary p p p
dielectric 1
special_bonds dreiding

bond_style harmonic
angle_style harmonic
dihedral_style harmonic
improper_style umbrella
pair_style hybrid/overlay hbond/dreiding/lj 4 9.0 11.0 90 lj/cut 8.50000

# Read data file
read_data frag5.dat
Reading data file ...
  triclinic box = (0.0000000 0.0000000 0.0000000) to (15.000000 15.000000 15.000000) with tilt (0.0000000 0.0000000 0.0000000)
  2 by 4 by 4 MPI processor grid
  reading atoms ...
  1516 atoms
  scanning bonds ...
  4 = max bonds/atom
  scanning angles ...
  6 = max angles/atom
  scanning dihedrals ...
  12 = max dihedrals/atom
  scanning impropers ...
  1 = max impropers/atom
  reading bonds ...
  1017 bonds
  reading angles ...
  529 angles
  reading dihedrals ...
  40 dihedrals
  reading impropers ...
  5 impropers
Finding 1-2 1-3 1-4 neighbors ...
  special bond factors lj:    0        0        1       
  special bond factors coul:  0        0        1       
     4 = max # of 1-2 neighbors
     6 = max # of 1-3 neighbors
     9 = max # of special neighbors
  special bonds CPU = 0.002 seconds
  read_data CPU = 0.018 seconds

# Dreiding potential information

bond_coeff 1 350 1.73
bond_coeff 2 350 1.8
bond_coeff 3 350 1.43
bond_coeff 4 350 1.53
bond_coeff 5 700 1.275
bond_coeff 6 350 1.36
bond_coeff 7 350 1.09
bond_coeff 8 350 0.99
bond_coeff 9 350 0.935
bond_coeff 10 350 0.98

angle_coeff 1 50 92.1
angle_coeff 2 50 109.471
angle_coeff 3 50 120
angle_coeff 4 50 120
angle_coeff 5 50 120
angle_coeff 6 50 104.51

dihedral_coeff 1 0.5 -1 2
dihedral_coeff 2 0.333333333333333 -1 3
dihedral_coeff 3 0.0833333333333333 -1 6
dihedral_coeff 4 0.111111111111111 -1 3
dihedral_coeff 5 5.625 -1 2
dihedral_coeff 6 11.25 -1 2
dihedral_coeff 7 0.625 -1 2

improper_coeff 1 40 0

pair_coeff 1 1 lj/cut 0.344 4.03
pair_coeff 1 2 lj/cut 0.180871224908773 3.96360303259547
pair_coeff 1 3 lj/cut 0.180871224908773 3.96360303259547
pair_coeff 1 4 lj/cut 0.163173527264688 3.84164847428809
pair_coeff 1 5 lj/cut 0.180871224908773 3.96360303259547
pair_coeff 1 6 lj/cut 0.0723104418462507 3.58829346625941
pair_coeff 1 7 lj/cut 0.00586515131944607 3.58717019389936
pair_coeff 1 8 lj/cut 0.18144089946867 3.70412445795224
pair_coeff 2 2 lj/cut 0.0951 3.8983
pair_coeff 2 3 lj/cut 0.0951 3.8983
pair_coeff 2 4 lj/cut 0.0857947550844456 3.77835472527395
pair_coeff 2 5 lj/cut 0.0951 3.8983
pair_coeff 2 6 lj/cut 0.0380199947396104 3.52917391183829
pair_coeff 2 7 lj/cut 0.00308382878902186 3.52806914614779
pair_coeff 2 8 lj/cut 0.0953995283007206 3.64309650983885
pair_coeff 3 3 lj/cut 0.0951 3.8983
pair_coeff 3 4 lj/cut 0.0857947550844456 3.77835472527395
pair_coeff 3 5 lj/cut 0.0951 3.8983
pair_coeff 3 6 lj/cut 0.0380199947396104 3.52917391183829
pair_coeff 3 7 lj/cut 0.00308382878902186 3.52806914614779
pair_coeff 3 8 lj/cut 0.0953995283007206 3.64309650983885
pair_coeff 4 4 lj/cut 0.0774 3.6621
pair_coeff 4 5 lj/cut 0.0857947550844456 3.77835472527395
pair_coeff 4 6 lj/cut 0.0342998542270955 3.42058613398347
pair_coeff 4 7 lj/cut 0.00278208554864871 3.41951536039831
pair_coeff 4 8 lj/cut 0.0860649754545948 3.53100349192691
pair_coeff 5 5 lj/cut 0.0951 3.8983
pair_coeff 5 6 lj/cut 0.0380199947396104 3.52917391183829
pair_coeff 5 7 lj/cut 0.00308382878902186 3.52806914614779
pair_coeff 5 8 lj/cut 0.0953995283007206 3.64309650983885
pair_coeff 6 6 lj/cut 0.0152 3.195
pair_coeff 6 7 lj/cut 0.0012328828005938 3.19399984345648
pair_coeff 6 8 lj/cut 0.0381397430510485 3.29813538230316
pair_coeff 7 7 lj/cut 1e-04 3.193
pair_coeff 7 8 lj/cut 0.0030935416596516 3.29710294046152
pair_coeff 8 8 lj/cut 0.0957 3.4046
pair_coeff 4 4 hbond/dreiding/lj 7 j 9.50 2.75 4 9.0 11.0 90
pair_coeff 4 8 hbond/dreiding/lj 7 i 9.50 2.75 4 9.0 11.0 90
pair_coeff 4 8 hbond/dreiding/lj 7 j 9.50 2.75 4 9.0 11.0 90
pair_coeff 8 8 hbond/dreiding/lj 7 j 9.50 2.75 4 9.0 11.0 90

neighbor 2 bin
neigh_modify every 2 one 10000

# Gemoetric relaxation
fix 1 all box/relax iso 1.0 vmax 0.001
minimize 1.0e-4 1.0e-6 10000 10000
WARNING: Using 'neigh_modify every 1 delay 0 check yes' setting during minimization (../min.cpp:188)
Neighbor list info ...
  update every 1 steps, delay 0 steps, check yes
  max neighbors/atom: 10000, page size: 100000
  master list distance cutoff = 13
  ghost atom cutoff = 13
  binsize = 6.5, bins = 3 3 3
  3 neighbor lists, perpetual/occasional/extra = 3 0 0
  (1) pair hbond/dreiding/lj, perpetual, skip from (3)
      attributes: full, newton on
      pair build: skip
      stencil: none
      bin: none
  (2) pair lj/cut, perpetual, half/full from (3)
      attributes: half, newton on
      pair build: halffull/newton
      stencil: none
      bin: none
  (3) neighbor class addition, perpetual
      attributes: full, newton on
      pair build: full/bin
      stencil: full/bin/3d
      bin: standard
Per MPI rank memory allocation (min/avg/max) = 15.33 | 15.73 | 16.25 Mbytes
Step Temp E_pair E_mol TotEng Press Volume 
       0            0 4.2326572e+18    458.28997 4.2326572e+18 3.4397226e+20         3375 
    5271            0   -989.34289    37.918811   -951.42408   -130.24581    34646.235 
Loop time of 4.4541 on 32 procs for 5271 steps with 1516 atoms

100.0% CPU use with 32 MPI tasks x no OpenMP threads

Minimization stats:
  Stopping criterion = energy tolerance
  Energy initial, next-to-last, final = 
    4.23265718827425e+18  -950.923586395455  -950.968021168414
  Force two-norm initial, final = 6.8309426e+20 121.03361
  Force max component initial, final = 3.4761171e+20 91.540061
  Final line search alpha, max atom move = 1.4572556e-05 0.0013339726
  Iterations, force evaluations = 5271 5273

MPI task timing breakdown:
Section |  min time  |  avg time  |  max time  |%varavg| %total
---------------------------------------------------------------
Pair    | 1.3368     | 2.6833     | 3.6017     |  35.3 | 60.24
Bond    | 0.0064035  | 0.011358   | 0.023369   |   3.1 |  0.26
Neigh   | 0.08646    | 0.087125   | 0.087473   |   0.1 |  1.96
Comm    | 0.40734    | 1.3238     | 2.6718     |  50.2 | 29.72
Output  | 0          | 0          | 0          |   0.0 |  0.00
Modify  | 0          | 0          | 0          |   0.0 |  0.00
Other   |            | 0.3485     |            |       |  7.82

Nlocal:        47.3750 ave          66 max          28 min
Histogram: 2 1 3 4 5 6 4 1 4 2
Nghost:        2121.94 ave        2162 max        2058 min
Histogram: 1 2 1 3 5 2 4 2 10 2
Neighs:        5478.38 ave        7791 max        2846 min
Histogram: 2 2 2 3 2 9 5 2 3 2

Total # of neighbors = 175308
Ave neighs/atom = 115.63852
Ave special neighs/atom = 2.0395778
Neighbor list builds = 88
Dangerous builds = 0

# MD simulation
velocity all create 300.0 12345 rot yes dist gaussian
timestep 1.0
fix 2 all nvt temp 300.0 300.0 1

# Compute interaction energy
group WAT molecule <> 2 501
1500 atoms in group WAT
group MOL molecule 1
16 atoms in group MOL

compute w WAT group/group MOL pair yes
fix 3 all ave/time 10 5 100 c_w file outa

# Outputs
thermo 100 # Output thermodynamic data every nth step
#dump mf1 all xyz 10000 mol_*.xyz

# Run
run 1000000
Neighbor list info ...
  update every 2 steps, delay 10 steps, check yes
  max neighbors/atom: 10000, page size: 100000
  master list distance cutoff = 13
  ghost atom cutoff = 13
  binsize = 6.5, bins = 6 6 6
  4 neighbor lists, perpetual/occasional/extra = 3 1 0
  (1) pair hbond/dreiding/lj, perpetual, skip from (4)
      attributes: full, newton on
      pair build: skip
      stencil: none
      bin: none
  (2) pair lj/cut, perpetual, half/full from (4)
      attributes: half, newton on
      pair build: halffull/newton
      stencil: none
      bin: none
  (3) compute group/group, occasional, copy from (2)
      attributes: half, newton on
      pair build: copy
      stencil: none
      bin: none
  (4) neighbor class addition, perpetual
      attributes: full, newton on
      pair build: full/bin
      stencil: full/bin/3d
      bin: standard
Per MPI rank memory allocation (min/avg/max) = 14.17 | 14.26 | 14.85 Mbytes
Step Temp E_pair E_mol TotEng Press Volume 
    5271          300   -989.34289    37.918811    403.35409    1657.2499    34646.235 
    5300     292.5087   -999.52064    147.87733    469.30471    1624.8298    34646.235 
    5400    306.41312   -1075.3302    222.47593    530.88503    54.309475    34646.235 
    5500    293.87833   -1102.2911    206.11143    430.95346   -131.25469    34646.235 
    5600    313.08995   -1077.1712    186.21563    522.93581    188.46705    34646.235 
    5700    303.49874   -1059.3931    185.63912    496.82425    137.72161    34646.235 
    5800    309.58716   -1096.7487    191.69697    493.02137     530.4847    34646.235 
    5900    291.95688   -1074.5753    201.52321    445.40397    352.59791    34646.235 
    6000    299.22956   -1118.3797    197.30022    430.21942    266.61236    34646.235 
    6100    290.79262   -1112.3685    194.12273     394.9526   -36.672239    34646.235 
    6200    291.56227   -1022.7772    205.34872    499.24548    376.57087    34646.235 
    6300    298.64012   -1069.6166    199.20132    478.22181    530.81595    34646.235 
    6400    290.32466   -1069.1576    215.49341    457.42083    579.27981    34646.235 
    6500    301.24132   -1109.9793    200.75797    451.16259    482.48259    34646.235 
    6600     307.0274   -1116.7381    215.27572      485.051    578.73216    34646.235 
    6700      295.511   -1109.9748    215.32026    439.85163    574.93812    34646.235 
    6800    292.07209   -1112.5543    211.39114    417.81315    -28.97764    34646.235 
    6900    295.29905   -1115.6142     209.9068    427.84162    105.02264    34646.235 
    7000    295.45464   -1095.2713    219.56099    458.54135    439.50733    34646.235 
    7100    294.56949    -1112.209      203.705    421.75037    387.70682    34646.235 
    7200    290.81555   -1126.3453     211.5661    398.52263    356.64313    34646.235 
    7300    296.85687   -1104.0663    228.05123    464.56895    898.55695    34646.235 
    7400    299.88394   -1140.0455    216.93673    431.14526    175.56287    34646.235 
    7500    308.81267   -1130.8499    231.80152    495.52723    1016.5574    34646.235 
    7600    300.10907   -1109.5454    225.39413    471.11943    597.36049    34646.235 
    7700    291.90894   -1122.6783     230.3695    425.93072    990.62479    34646.235 
    7800    300.06116   -1119.4894    231.44334    467.00829    357.72132    34646.235 
    7900    303.45573   -1106.7174     231.0477    494.71425    560.60077    34646.235 
    8000    299.21229    -1075.475    223.81215     499.5581    374.39052    34646.235 
    8100    310.76282   -1135.0011    246.43993    514.82114    800.90604    34646.235 
    8200    301.42865   -1099.4348    254.00721    515.80227    860.28645    34646.235 
    8300    306.00076   -1073.8123    240.82687    548.89178    579.96583    34646.235 
    8400    299.52003   -1132.7477    244.96575    464.82876    164.34673    34646.235 
    8500    294.55472   -1164.8955    246.21933    411.51156    181.60001    34646.235 
    8600    304.89167   -1146.5014    253.48926     483.8565    93.722134    34646.235 
    8700    299.88811   -1108.4709    242.40258    488.20458   -189.43218    34646.235 
    8800    298.33939   -1100.8403     264.1788    510.61747    149.63773    34646.235 
    8900    311.00501   -1126.3772    239.87299    517.97182    896.20288    34646.235 
    9000    311.45024   -1109.3497    269.08136    566.21826    180.99314    34646.235 
    9100    292.58954    -1127.792     249.5298    443.05086    588.08614    34646.235 
    9200     315.3206   -1106.5045    261.51133    578.97176    710.04597    34646.235 
    9300    298.40432   -1152.4139    257.93433    453.09265     119.4088    34646.235 
    9400    301.12274   -1149.8827    245.48796    455.45364    452.70134    34646.235 
    9500    287.61904   -1127.2754    266.77397    438.36521    69.657657    34646.235 
    9600    296.84195   -1185.2197    265.01911    420.31606    543.80886    34646.235 
    9700    298.19595   -1180.9108    269.55942     435.2798    548.71776    34646.235 
    9800    294.34703   -1157.1074    271.50656    443.64888    621.82933    34646.235 
    9900    285.95617   -1136.7812    263.68322    418.25924    563.06546    34646.235 
   10000    295.53715   -1175.4572    257.92672    417.09381    651.01543    34646.235 
   10100    295.59918   -1162.5478    262.35648     434.7131    628.86156    34646.235 
   10200    293.60056   -1143.5911    264.29544    446.58311    709.74475    34646.235 
   10300    291.70626   -1171.1849    265.69357    411.83292    613.87513    34646.235 
   10400     295.5144   -1191.1258    276.10955    419.50533    396.09718    34646.235 
   10500    312.02422   -1174.4217    278.42575     513.0827    228.47257    34646.235 
   10600    302.31251   -1161.7188    271.42886    474.93137    500.33863    34646.235 
   10700    314.17163   -1168.3417    267.43685    517.87134     378.6727    34646.235 
   10800    301.64434    -1213.125    270.07119    419.15008     269.7302    34646.235 
   10900    304.49547   -1206.7122    275.51517    443.88236     51.24878    34646.235 
   11000    314.06981   -1210.4586    268.95749    476.81534    859.09771    34646.235 
   11100    309.51943    -1176.673    271.59566    492.68985    708.28734    34646.235 
   11200    309.97915   -1144.6026    285.10308    540.34373    663.55426    34646.235 
   11300    301.75755   -1199.0036    273.78387    437.49542    1096.5285    34646.235 
   11400     303.8287   -1169.6079    282.02117     484.4816    1001.0032    34646.235 
   11500    300.63041   -1154.5395    282.65585    485.74144    179.67868    34646.235 
   11600    310.47136    -1177.898    269.71477    493.88282   -198.20258    34646.235 
   11700    297.02894   -1113.3014    265.47165    493.53139    741.86139    34646.235 
   11800    296.16775   -1174.8737    280.57428     443.1726    325.13576    34646.235 
   11900    298.71212   -1153.7372    290.44148    485.66649   -83.612919    34646.235 
   12000    304.46372   -1144.5862    277.49425    507.84401    240.61194    34646.235 
   12100    294.06588   -1171.2423    286.88871    443.62653    252.96197    34646.235 
   12200    289.67691    -1160.476    289.72165    437.40545    913.67995    34646.235 
   12300    290.90085   -1160.6661    271.21184    424.23281    746.86084    34646.235 
   12400    299.65992    -1176.162    285.44415     462.5245    214.35745    34646.235 
   12500    306.48227   -1168.3154    295.87831    511.61455    1455.4416    34646.235 
   12600    304.49337    -1127.566    283.60586    531.10979    894.99563    34646.235 
   12700    304.97808    -1149.644    277.04712    504.66197    1046.7269    34646.235 
   12800    298.85421   -1144.1388    283.40742    488.87242     255.9445    34646.235 
   12900       307.12   -1162.0386    284.96051    509.85353    756.53976    34646.235 
   13000    307.97406   -1180.0683    285.13208    495.85216     630.6347    34646.235 
   13100    294.63612   -1225.1096    287.84464    393.29033    449.74352    34646.235 
   13200    306.49002   -1175.7712    289.84744     498.1629    366.47391    34646.235 
   13300    291.79998   -1143.5236    308.25098    482.47491    237.61188    34646.235 
   13400    288.63661   -1177.4491    280.06308    406.07594   -196.61395    34646.235 
   13500    299.59022   -1179.3982    282.02753    455.55693    -138.1986    34646.235 
   13600    304.16608   -1190.3156    303.37441    486.65073   -24.832617    34646.235 
   13700    303.92793   -1163.6679    295.27186    504.12034    30.066795    34646.235 
   13800    305.85191   -1148.3274    290.90653    523.78412    103.51794    34646.235 
   13900    306.63757   -1179.1609    298.82947    504.42151    300.51722    34646.235 
   14000    297.72035   -1182.5019    282.91177    444.89329   -121.66099    34646.235 
   14100    294.20676    -1198.531    296.48634    426.57162    511.42989    34646.235 
   14200     295.4155   -1206.8411    303.76392    430.99774    256.65222    34646.235 
   14300    299.12973    -1158.414    305.89808    498.33215    272.93347    34646.235 
   14400    303.29921   -1184.4466    287.47167    472.70228    603.85018    34646.235 
   14500    297.54704   -1190.9092    290.25172    443.04326    55.002533    34646.235 
   14600    307.60368   -1180.1425    307.96613    516.93945    202.63594    34646.235 
   14700    292.62599   -1185.9556    291.87849    427.40056    370.17917    34646.235 
   14800    296.94677   -1208.9138    305.00019    437.07636    477.03546    34646.235 
   14900    293.54836   -1218.7027    306.91796    413.85827   -209.33153    34646.235 
   15000    305.81394   -1195.6218    279.75771    465.16936    14.420917    34646.235 
   15100     311.8572   -1192.6792    307.31328    522.95848    128.53885    34646.235 
   15200     298.0442   -1203.2174    307.15859    449.88711   -69.811991    34646.235 
   15300     299.8666   -1175.7037    316.12991    494.60194    203.07574    34646.235 
   15400    299.23725   -1194.2028    314.77768    471.90847    601.12547    34646.235 
   15500    307.29895   -1167.0611    300.22752    520.90616    210.55324    34646.235 
   15600    304.45733   -1249.6801    310.68943    435.91652    399.40815    34646.235 
   15700    301.76108   -1228.4845    293.05352    427.30009      373.099    34646.235 
   15800    303.05808   -1207.7319     309.5955    470.45182    403.52513    34646.235 
   15900    304.74258   -1224.9264    323.54008    474.80898    612.25715    34646.235 
   16000    299.27794   -1238.7327    309.86441    422.64914    625.68237    34646.235 
   16100    289.98171    -1211.767    315.25173    413.02106    256.15472    34646.235 
   16200    297.71043   -1182.7879    310.41088    472.06168    660.77113    34646.235 
   16300    293.77507   -1238.2066    324.00544    412.46565    523.64215    34646.235 
   16400    296.67547   -1207.3976    328.65324    461.02049    354.81935    34646.235 
   16500    292.53192   -1225.5377    303.79185    399.30702    73.964323    34646.235 
   16600    292.80977   -1195.7177    299.38736    425.97731    208.97019    34646.235 
   16700    305.00871   -1219.3026    303.74277    461.83732   -5.6991761    34646.235 
   16800    292.82024    -1175.239    316.85411    463.97003    184.54059    34646.235 
   16900    303.57945   -1256.3949     304.6399    419.18771   -164.92835    34646.235 
   17000    306.98769   -1173.8244    324.49363    537.00331    284.83704    34646.235 
   17100    297.77295   -1174.0339     310.0723    480.75935    412.25052    34646.235 
   17200    300.02604   -1238.9942    328.93357    444.83517    439.43672    34646.235 
   17300    301.68629   -1200.1099    293.01591     455.2994    131.64596    34646.235 
   17400    283.86074   -1162.5451    320.87076    440.22018     740.3613    34646.235 
   17500    296.89495   -1155.7436    305.26174    490.27416    32.789005    34646.235 
   17600    300.60973      -1184.4     314.6768    487.80849    145.49275    34646.235 
   17700    297.94701   -1206.8228    334.31998    473.00417    463.89656    34646.235 
   17800    304.23182    -1179.749    330.18515    524.32495    691.99756    34646.235 
   17900    302.13056   -1195.1063    318.26891    487.56229    488.97299    34646.235 
   18000    314.68089    -1179.763    325.29238    566.60534    314.75519    34646.235 
   18100    317.79418   -1198.2316    324.98174    561.88555    473.74696    34646.235 
   18200     301.3956   -1192.4386    305.82228    474.46425    969.42223    34646.235 
   18300    297.48509   -1200.4937    320.09172    463.01908    497.48059    34646.235 
   18400    303.31138   -1197.5627      344.404    516.57342    407.53603    34646.235 
   18500    292.77493   -1227.0506    323.78347    418.88312    490.44661    34646.235 
   18600    295.02101   -1207.0185    331.31296    456.58784    880.06292    34646.235 
   18700    302.86582   -1244.6001    324.04737    447.16731      210.912    34646.235 
   18800    297.93739   -1245.6027    333.90364    433.76449    622.82264    34646.235 
   18900     296.1535   -1191.1572    333.94205    480.19255    510.57356    34646.235 
   19000    304.50587   -1238.0987    333.70105    470.72874   -297.28597    34646.235 
   19100    291.21423   -1237.6307    336.86255    414.33411     256.4493    34646.235 
   19200    290.50085   -1231.6953    335.76254    415.94789    297.30078    34646.235 
   19300    298.98631   -1229.2001    344.90715    465.90741    262.46289    34646.235 
   19400    303.73985   -1240.9128    338.28015    469.03438    275.89319    34646.235 
   19500    293.30218    -1203.079    340.85361    462.30588    176.20539    34646.235 
   19600    293.47904   -1212.0408    338.87812    452.16726     96.90983    34646.235 
   19700    299.63245   -1197.0183    360.66626    516.76626    633.32074    34646.235 
   19800    307.75474   -1221.8456    330.47513    498.42752     101.8373    34646.235 
   19900    290.14794   -1249.0561    328.13931     389.3702   -297.09332    34646.235 
   20000    309.70189   -1191.6622    363.53095     570.4599     445.6234    34646.235 
   20100    295.41753   -1203.2847     335.4627    466.26209    297.16331    34646.235 
   20200     296.2492   -1234.6438    340.14889    443.34488   -158.51956    34646.235 
   20300    299.93089   -1212.1578    323.21711    465.52541     114.3012    34646.235 
   20400    298.77857   -1219.0627    351.93181    482.13144   -464.10011    34646.235 
   20500    296.12607    -1241.275    330.23268    426.24141   -281.73249    34646.235 
   20600     300.9925   -1256.2641    334.14417    437.14031    409.42311    34646.235 
   20700    307.61726   -1243.9863    356.03286    501.22375    606.11668    34646.235 
   20800    297.47096   -1232.1543    326.62588    437.82876    481.92232    34646.235 
   20900    307.79346    -1272.285    332.66187    450.34973    412.33171    34646.235 
   21000    299.59336   -1254.7349    369.70711    467.91403    262.28471    34646.235 
   21100    305.09295   -1246.1696    325.65444    457.26239    476.16239    34646.235 
   21200    283.76319   -1226.5734    337.05625    391.93679    913.12809    34646.235 
   21300    306.30437   -1254.0564    362.37785    491.56971    380.21838    34646.235 
   21400    303.84058   -1249.2612    357.74934    480.61009    329.10629    34646.235 
   21500    298.40936   -1219.3898    332.49956    460.70473    493.13955    34646.235 
   21600    296.91338   -1243.5616    335.52587    432.80355    37.436662    34646.235 
   21700    302.09407   -1257.2579    350.55192    457.52891    422.94616    34646.235 
   21800    301.49828   -1265.5808    348.29228    444.25579   -118.77033    34646.235 
   21900    295.92808   -1257.6615    340.48731    419.21547    606.27922    34646.235 
   22000     304.8485   -1265.5341    344.61845    455.75802    640.29063    34646.235 
   22100    296.38408   -1261.5657    383.29995    460.18314    300.04495    34646.235 
   22200     298.8394   -1234.8114    344.86338    459.58899    642.59772    34646.235 
   22300    291.73946   -1253.3226     353.3711    417.52267    239.57143    34646.235 
   22400    308.55654   -1244.9842    339.57018    488.00482    337.57402    34646.235 
   22500    300.49651   -1218.0312    348.60999     487.5992    549.35015    34646.235 
   22600    300.60466   -1253.2536    353.54842    457.80358    278.57641    34646.235 
   22700     307.0422     -1193.95    346.88046    539.51068    1191.7916    34646.235 
   22800    301.20108   -1243.3555    347.60968    464.45628    966.75598    34646.235 
   22900    299.17155   -1215.5283    362.80544    498.31406    693.73166    34646.235 
   23000    299.28669   -1224.0198    325.40067    452.93773    255.93593    34646.235 
   23100    288.73931   -1246.9482    370.97005    427.94755    3.3205069    34646.235 
   23200    302.74512   -1250.9075    345.62917    461.89655   -203.34946    34646.235 
   23300    304.92699   -1233.9435    342.24715    485.33175   -103.94239    34646.235 
   23400    297.01029    -1235.004     357.8988     464.1716    251.99303    34646.235 
   23500    306.23812   -1192.7672    362.84759    553.02949    850.85602    34646.235 
   23600    306.51361   -1203.1429    330.58849    511.63869    537.28146    34646.235 
   23700    300.36176   -1231.2422    349.66011    474.82974    764.04051    34646.235 
   23800    307.53294   -1209.1672    361.93554    541.56468    579.63736    34646.235 
   23900    307.13933   -1209.7508    353.40404    530.67214    405.46746    34646.235 
   24000    308.35496   -1201.5207     344.7075    535.69537    680.45135    34646.235 
   24100    302.59367   -1273.8341    344.31406    436.97094    985.52987    34646.235 
   24200    293.33776   -1219.7419    347.20416    452.15424    303.13662    34646.235 
   24300     309.7176    -1256.996    342.09686    483.76297     18.29792    34646.235 
   24400    304.81638   -1241.6152    354.03339    488.94675    603.97835    34646.235 
   24500    290.11382     -1244.46    343.05331    408.72619   -180.39285    34646.235 
   24600    299.62248   -1273.5752    334.13684    413.63495    242.30032    34646.235 
   24700    294.72997   -1268.6812    351.43236    413.73028    349.55319    34646.235 
   24800    290.74126   -1300.9772    353.64811    365.63725   -604.68175    34646.235 
   24900     290.4449   -1220.4236    356.75732    447.96179    170.54716    34646.235 
   25000     298.4149   -1253.1625    353.90065    448.35816    298.92896    34646.235 
   25100    299.08958   -1244.1884    347.74651    454.22488   -427.64425    34646.235 
   25200    303.52105   -1268.6627    344.87381    446.89006    397.97135    34646.235 
   25300    306.76193   -1253.0925    361.13492    493.35698   -216.75672    34646.235 
   25400     294.2981   -1261.6469    354.19531    421.57726    334.13858    34646.235 
   25500    297.19945   -1268.2665    363.22163    437.08621    375.93052    34646.235 
   25600    292.54785    -1221.826    368.91026    468.20904    109.44595    34646.235 
   25700    300.18647   -1256.5088     360.7328     459.8442    211.57195    34646.235 
   25800    304.76194   -1282.1541    345.88507    440.01372    337.42598    34646.235 
   25900    304.57938    -1287.889    336.83636    424.40569    568.29724    34646.235 
   26000    297.11804   -1310.7794    373.26105    404.24507    422.71693    34646.235 
   26100     294.6742   -1252.3024    358.96638    437.39122    399.44386    34646.235 
   26200    292.48849   -1264.2744     362.4449    419.02722    180.10112    34646.235 
   26300    303.79298   -1274.2927    363.25698    460.87129    455.09646    34646.235 
   26400    299.57283   -1301.0371    371.70079    423.51283    833.91236    34646.235 
   26500    297.47684   -1235.9998    346.67753    454.06146    756.82109    34646.235 
   26600     302.1545   -1232.8463    372.07639    503.73779    923.89557    34646.235 
   26700    306.25034   -1264.6573    394.16324    512.51019    240.84617    34646.235 
   26800    295.37762   -1233.5645    374.47024    474.80955    289.72594    34646.235 
   26900    300.85317    -1300.447    368.45531    426.63932    274.91521    34646.235 
   27000    299.82562   -1294.8351    352.61617    411.77171    730.83991    34646.235 
   27100    305.63351   -1288.0767    369.53997    461.68201    164.58947    34646.235 
   27200    292.23097   -1287.3558    361.21832    393.55628    277.23848    34646.235 
   27300    306.29811    -1265.118    369.50081    487.60276    11.365923    34646.235 
   27400    293.97628   -1337.7894    353.12809    342.91422    6.2057159    34646.235 
   27500    299.57814   -1277.7221    343.72787    418.87885    172.07079    34646.235 
   27600    297.60888   -1267.1104    376.18315    453.05279   -65.397847    34646.235 
   27700    297.52592   -1321.7418    384.82443    406.68805   -192.59168    34646.235 
   27800    295.60636   -1298.4377    377.49308    413.99217    -53.45523    34646.235 
   27900    300.08193   -1298.6426    365.75259    422.25821    138.11738    34646.235 
   28000    302.81696   -1256.0559    392.77429    504.21777    233.41897    34646.235 
   28100    284.46442   -1273.3908    386.49173    397.72155   -12.124771    34646.235 
   28200    298.02981   -1269.9255    366.76427    442.71973    960.57425    34646.235 
   28300    301.84335   -1281.5624    372.53988     454.0801    741.49197    34646.235 
   28400     304.5694   -1285.8584     364.3989    453.95377    445.72429    34646.235 
   28500    297.93091   -1281.1693    389.31736    453.58236    24.475707    34646.235 
   28600    301.53707   -1321.3156    391.27234    431.67621     503.9274    34646.235 
   28700    297.87495   -1300.3094    382.43527    427.30745    149.92543    34646.235 
   28800    295.22574   -1270.5126    367.53052    430.23585    169.56907    34646.235 
   28900    286.93815   -1305.0127    356.68087    347.45996   -60.651327    34646.235 
   29000    298.82984   -1316.4048     403.7937    436.88268    166.14616    34646.235 
   29100    300.71078    -1328.815     355.5199    384.69293    242.97314    34646.235 
   29200    287.33392    -1338.875    370.59239    329.29641    204.63173    34646.235 
   29300    289.27619   -1338.6779    379.94006    347.61242   -54.110036    34646.235 
   29400    304.92275   -1328.7018    370.88689    419.19402    253.99161    34646.235 
   29500     304.9427   -1333.8055    358.08652    401.38001   -530.51511    34646.235 
   29600    295.20817   -1333.4096    351.16369    350.89265    343.98016    34646.235 
   29700    303.79641    -1339.895    350.14107     382.1686    810.52587    34646.235 
   29800    297.24742   -1287.9881     387.4387     441.7983    1077.7999    34646.235 
   29900    293.73765   -1273.0787    382.34658    435.76572    708.23725    34646.235 
   30000    300.22525   -1281.0391    378.41159    453.16789   -313.61052    34646.235 
   30100    303.03011   -1258.9657    397.28088    506.77714   -44.244727    34646.235 
   30200    301.01616   -1263.7476       362.16    457.77942   -169.04077    34646.235 
   30300    305.14122   -1254.4374    373.37116     496.9293    -190.7238    34646.235 
   30400    298.95345   -1285.0798    364.52159    429.49386   -189.79677    34646.235 
   30500    305.86427   -1294.6327    370.96087    457.58894   -280.02351    34646.235 
   30600    306.35684   -1330.8675    365.68409    418.30182   -116.10065    34646.235 
   30700    302.89934   -1320.9107    372.71457    419.67523   -7.4531732    34646.235 
   30800    293.44835   -1302.2488    361.73949    384.68206   -254.89751    34646.235 
   30900    295.72397    -1276.049    383.37284     442.7918    196.19888    34646.235 
   31000     297.2231    -1302.927    396.15655    435.46744    385.17818    34646.235 
   31100    303.27936   -1355.8821    380.43253    394.13798   -28.377415    34646.235 
   31200     302.2836   -1338.4584    385.12022     411.7525    642.80542    34646.235 
   31300    298.89905   -1356.3208    375.64555    369.13111    -380.0673    34646.235 
   31400    315.98523   -1317.4047    372.11771    481.67932    135.38497    34646.235 
   31500    297.25046   -1299.5267    366.15675    408.99147    98.733295    34646.235 
   31600    297.47747   -1316.9349    358.91555     385.3673     77.88271    34646.235 
   31700    289.17308   -1300.9769    391.59416    396.50181    15.606138    34646.235 
   31800     302.8802    -1303.758    385.31005      449.337     550.8798    34646.235 
   31900    295.43058   -1298.8612     376.9387    412.22053    628.76562    34646.235 
   32000    296.61711   -1261.0414    404.76953    483.22941    -45.20936    34646.235 
   32100    309.96472   -1287.4431    387.77615    500.11115    68.373944    34646.235 
   32200     293.7131   -1303.9294    378.28569    400.74334   -449.70883    34646.235 
   32300    292.25397   -1265.2229    392.19213    446.76688   -879.26058    34646.235 
   32400    291.23079   -1268.9629    378.88389    425.09806   -131.55061    34646.235 
   32500    309.17696   -1339.6635    360.46729    417.02445    138.26262    34646.235 
   32600    286.36722   -1306.8665     392.2797    378.62672    62.610693    34646.235 
   32700    313.17153   -1344.2999    371.66255    441.62247    468.60209    34646.235 
   32800     304.1271   -1334.0311    393.67953     433.0643    204.78804    34646.235 
   32900    298.20254   -1316.9807    404.75309    434.43335   -181.35869    34646.235 
   33000    292.02553   -1285.4741    364.70532    397.99727    -59.36876    34646.235 
   33100    297.95115   -1296.5756    374.50284    423.45292    145.91599    34646.235 
   33200    300.39554    -1335.694    360.03207    380.90248   -248.77683    34646.235 
   33300    305.61904   -1355.2072    387.60063    412.54677   -561.31727    34646.235 
   33400    293.80327   -1299.5034    392.61057    419.90137   -241.43745    34646.235 
   33500     303.4886   -1295.5659    396.31037    471.27688    323.19881    34646.235 
   33600    306.48834   -1260.0315    373.91099    497.95849    713.94416    34646.235 
   33700    340.25799   -1286.0759     373.6994    624.20382    703.87771    34646.235 
   33800    308.41863   -1308.9518    383.51926    467.36354    410.43672    34646.235 
   33900    298.31141   -1275.2672    391.42159    463.30706    302.80816    34646.235 
   34000    311.19789   -1267.3691    405.12156    543.09949    624.00306    34646.235 
   34100    304.44049   -1302.7361    397.33643    469.43138   -253.96476    34646.235 
   34200    304.24472   -1290.0788    387.46747    471.33568    127.33668    34646.235 
   34300    303.66267   -1256.9754    405.93229    520.27539   -293.76336    34646.235 
   34400    304.06962   -1282.3512    383.30211    474.10718    369.68726    34646.235 
   34500    312.35621   -1280.6642    392.76634    522.68009    533.38733    34646.235 
   34600     294.1875   -1282.2708    378.12243      424.381    -265.7416    34646.235 
   34700    293.49873   -1288.8109    382.52526    419.13331    206.04067    34646.235 
   34800    306.93345    -1314.555    376.01549    447.54967   -206.09898    34646.235 
   34900    303.53655   -1334.7905    394.15022    430.10868    308.56226    34646.235 
   35000    306.13739   -1298.0098     377.9839    462.46828    635.93521    34646.235 
   35100    308.62191   -1313.3208     388.5931    468.98636    415.59052    34646.235 
   35200     311.3953   -1312.7002    369.88079    463.41908    378.05562    34646.235 
   35300    301.88091    -1327.633    369.40003    405.03926   -157.60927    34646.235 
   35400     295.6319   -1345.4389    394.57396    384.18724    241.60307    34646.235 
   35500    298.70566   -1360.4807    383.50437    371.95674    331.04016    34646.235 
   35600    298.83714   -1340.1001    374.08942    383.51611    201.44517    34646.235 
   35700    297.23646   -1341.0328    372.38543    373.65087    566.78633    34646.235 
   35800    298.45964   -1316.1908    366.65428    398.28544    511.06926    34646.235 
   35900    302.21111     -1303.39    400.79778    462.17113     429.2599    34646.235 
   36000    297.34831   -1297.8113    394.83744    439.82951    59.301859    34646.235 
   36100     312.0302     -1274.04    390.90949     525.9752    631.64494    34646.235 
   36200    298.49959   -1339.6639    412.37065    420.70918    555.55197    34646.235 
   36300    294.00249   -1340.4584    386.71888    373.95437    275.15722    34646.235 
   36400    301.06793   -1313.4291    396.19196    442.36379   -63.679129    34646.235 
   36500    302.16731   -1287.1281    394.69156    472.12902   -664.85825    34646.235 
   36600    297.24129    -1287.521    395.68141    450.48048    47.265732    34646.235 
   36700    300.85998   -1288.7951     406.7713     476.6379   -592.53618    34646.235 
   36800    301.45529   -1319.6689     403.8074    445.48866   -271.35469    34646.235 
   36900    293.19783    -1316.769    408.42543    415.71647   -517.37091    34646.235 
   37000    299.00784   -1321.1112    392.88854      422.075   -427.32527    34646.235 
   37100    297.28918   -1340.5481    396.21033    398.19851   -121.84806    34646.235 
   37200    302.49347   -1329.0641    404.36733     441.3417   -589.97465    34646.235 
   37300    293.27642   -1339.2834    400.81577    385.94729    80.202771    34646.235 
   37400    297.85061   -1335.6454    411.10345    420.52973   -289.89859    34646.235 
   37500     303.7368   -1306.2649    400.59169    465.98007    247.29357    34646.235 
   37600    306.27851   -1354.1153    407.72818    436.74434    9.9484634    34646.235 
   37700    303.03338   -1328.1259    376.15243    416.50322    218.28309    34646.235 
   37800    299.76763   -1294.6961    415.29096    474.32361    383.46987    34646.235 
   37900     297.1999   -1309.9444    413.93545    446.12417   -113.63259    34646.235 
   38000    309.70333   -1313.3068    426.43822     511.7291    252.59916    34646.235 
   38100    299.85157   -1355.8054    405.72082    404.02332   -201.46967    34646.235 
   38200    297.55392   -1302.8789    407.85797    448.71093    199.61104    34646.235 
   38300     298.4013   -1321.8648    402.74172    428.43549   -180.07028    34646.235 
   38400    306.85844   -1298.3186    403.82474    491.25656   -188.41461    34646.235 
   38500    294.44076   -1284.2301    413.26645    458.70934    24.317328    34646.235 
   38600    293.54773   -1304.0206    424.21387    445.83348   -313.99719    34646.235 
   38700    291.05338   -1261.0305    425.86284    479.20825   -271.57211    34646.235 
   38800       303.39   -1246.0707    404.90163    528.91807   -503.88285    34646.235 
   38900    300.49595   -1263.8327    397.49012    490.67528   -651.55852    34646.235 
   39000    304.13298   -1264.4072    415.93536    524.97056     -366.513    34646.235 
   39100    300.97697   -1303.1377    394.84468    450.89702    688.43378    34646.235 
   39200    308.60098   -1273.9393    413.35572    533.03593   -128.70759    34646.235 
   39300    306.50719   -1299.3309    399.39525    484.22846    188.27115    34646.235 
   39400    295.27697   -1316.2382     413.3062    430.51735    526.73868    34646.235 
   39500    301.95285   -1329.4005    409.54189    443.73848   -371.67933    34646.235 
   39600    295.55332   -1308.3442    416.59219    442.94523    336.37795    34646.235 
   39700    301.43981   -1363.1388    417.07194    415.21342    635.51688    34646.235 
   39800    307.75809   -1323.3098    406.28262    472.78591    611.22903    34646.235 
   39900    305.59447   -1325.4936    405.32817    459.87692     281.6979    34646.235 
   40000      304.179   -1361.2114    413.35216    425.79101    278.14311    34646.235 
   40100    302.74262   -1338.8813    399.79397    428.07631    413.47047    34646.235 
   40200    284.44853   -1384.1798    407.30227    307.67126    620.10871    34646.235 
   40300    298.82529   -1434.8992    411.02878    325.60281    754.63339    34646.235 
   40400    314.75766   -1331.7316    410.20699    499.89808    81.838792    34646.235 
   40500    302.72457   -1372.1439    392.49435    387.43263   -71.169224    34646.235 
   40600    300.39483   -1348.7615    381.46789    389.26756    24.035929    34646.235 
   40700    306.07499   -1375.5991    392.95432    399.56757    -526.4706    34646.235 
   40800    297.77032   -1368.7953    400.04162     375.9554   -305.68346    34646.235 
   40900    309.07931    -1367.598    406.05973    434.24144    89.539949    34646.235 
   41000    296.70772    -1373.028    415.36284    382.24528    343.35818    34646.235 
   41100    303.53698   -1370.0354    417.80501    418.52059     291.7558    34646.235 
   41200    305.83442   -1379.1146    413.80497    415.81637    529.22376    34646.235 
   41300    290.62559   -1363.0559    426.48218    375.87033    736.08882    34646.235 
   41400    294.42302   -1329.2106     396.2782    396.66057    456.34989    34646.235 
   41500    297.70652    -1326.281    409.57443    427.71436    283.67332    34646.235 
   41600    291.77476   -1336.8756    406.92009    387.67809    209.14429    34646.235 
   41700    305.59689   -1409.9534     406.8929    376.99281    417.85786    34646.235 
   41800    302.39099   -1389.4552    427.87656     403.9971    1199.6414    34646.235 
   41900    306.45176   -1373.9566    404.06576    414.02304    368.31554    34646.235 
   42000    307.25077   -1356.7548    432.76609    463.53339    326.02767    34646.235 
   42100    311.13512   -1377.3126    412.47079    440.22174    976.21819    34646.235 
   42200    287.51768   -1392.0137    404.61107    311.00626    57.608097    34646.235 
   42300    305.35139   -1351.0911    422.21153    450.06513    379.78499    34646.235 
   42400     302.4169    -1321.143    403.14287    447.69261    734.84292    34646.235 
   42500    300.54196   -1350.6812     410.2797    416.82411    92.607785    34646.235 
   42600    303.63392   -1345.2386    403.07227     429.0223   -350.58197    34646.235 
   42700    283.38616   -1366.2497     384.6786    298.18016   -97.545724    34646.235 
   42800    284.47134   -1335.1994    395.32679    344.77931   -320.02346    34646.235 
   42900    310.03107   -1343.1302    414.60173    471.54928    211.00231    34646.235 
   43000    300.03354   -1355.3866     402.1528    401.69585    353.49598    34646.235 
   43100    295.50811    -1362.398    429.68426    401.77937    349.15577    34646.235 
   43200     292.7081   -1331.8253    426.14767    416.17085    683.23478    34646.235 
   43300    299.91352   -1341.5698    434.78806    447.60584    307.41262    34646.235 
   43400    295.97418   -1359.4796    412.79335    389.91162     178.1536    34646.235 
   43500    298.74018   -1355.6952    435.83601    429.22973    261.40325    34646.235 
   43600    290.43248   -1299.8311    405.82011    417.56094   -332.91638    34646.235 
   43700    310.55539   -1279.5658    415.48802    538.36778    114.44679    34646.235 
   43800    304.26415   -1334.7728     414.0952    453.35717   -525.77548    34646.235 
   43900    302.45116   -1330.6695    390.59229    425.77016    172.42373    34646.235 
   44000    297.60558    -1359.457    379.36698    363.87509   -680.81337    34646.235 
   44100    303.66439   -1309.2158    399.29319    461.40368    35.537375    34646.235 
   44200    293.43193   -1353.5408    398.40409    369.98048   -430.75203    34646.235 
   44300    294.22254   -1296.9289    452.73013    484.48882   -15.154175    34646.235 
   44400    303.99351   -1373.8191    404.72653    403.71995   -750.52632    34646.235 
   44500    292.57015   -1338.9896    399.09938    381.33526   -271.44739    34646.235 
   44600     293.8627    -1346.527      425.884    406.41956   -821.11643    34646.235 
   44700    295.39777   -1370.6046    420.58234     383.9726   -503.85322    34646.235 
   44800    302.36895    -1337.485    426.54467    454.53587    559.59212    34646.235 
   44900    300.10987   -1321.0967    409.92513    444.10276     685.0625    34646.235 
   45000    312.25087   -1288.9306    412.21566     533.3872    641.46456    34646.235 
   45100    291.10705   -1304.7257     395.4206     405.3131    857.69609    34646.235 
   45200    302.70466   -1306.3382    417.21433    477.86839     448.0333    34646.235 
   45300    308.15809   -1366.5627    408.06034    433.11717   -44.273678    34646.235 
   45400     293.6311   -1315.4028    411.48133    422.09518    62.924269    34646.235 
   45500    305.65801   -1357.3516    410.33823    433.31594     168.6336    34646.235 
   45600     310.0405   -1317.1633    410.79452    493.75153    525.67534    34646.235 
   45700    300.46252   -1321.8144    396.60039    431.65292    409.65169    34646.235 
   45800    303.79828   -1359.7838    393.08969    405.23683    331.37919    34646.235 
   45900     298.2345    -1340.427    424.21323    430.59152    554.75138    34646.235 
   46000    300.48658   -1302.9334    435.96444    490.00657    235.73835    34646.235 
   46100    295.53151   -1367.7326    402.71444     369.5806   -395.08227    34646.235 
   46200    299.76341   -1371.5749    420.49151    402.62639    271.74343    34646.235 
   46300    307.61777   -1311.6346    449.11251    526.65736    366.35763    34646.235 
   46400    299.60378   -1322.3518    416.00188    446.63892   -190.29799    34646.235 
   46500     295.0945   -1340.6961    422.30132    414.23054   -501.00867    34646.235 
   46600     293.0132   -1337.1228      408.806    394.90946    110.62423    34646.235 
   46700    295.78399   -1314.8566    428.59868    449.48107     170.3555    34646.235 
   46800    294.50125   -1348.1425    451.94384    433.74752    570.37997    34646.235 
   46900    307.38863    -1358.283    425.75785    455.61954    32.238495    34646.235 
   47000    309.24722   -1323.2687    423.04583    496.31507   -161.61045    34646.235 
   47100    297.38098   -1332.6345    419.42155    429.73792    378.91551    34646.235 
   47200     305.6357   -1343.5834    425.59032    462.23548    95.326881    34646.235 
   47300    308.82438   -1401.7289    425.70861    418.60811   -46.931661    34646.235 
   47400    301.08731   -1386.8732    401.55417    374.36932    499.84084    34646.235 
   47500     308.2612   -1358.1542     410.2291    444.16004   -61.550072    34646.235 
   47600    305.25527    -1385.445     431.2184    424.28399   -743.43413    34646.235 
   47700    293.09634   -1387.0325     422.9214    359.49066   -340.38849    34646.235 
   47800    300.02995      -1384.1    409.55318    380.36664    359.98478    34646.235 
   47900    295.73019   -1340.9163    412.49814    407.07784   -140.71389    34646.235 
   48000    299.22876   -1360.3203    418.29774    409.27272   -121.56773    34646.235 
   48100    297.34652   -1397.4952    430.70251    376.00256    170.44348    34646.235 
   48200    299.80873   -1389.2967     434.4869    399.10457     82.94007    34646.235 
   48300    310.34325   -1362.9342    421.61301    460.16634   -261.42383    34646.235 
   48400    309.69585   -1409.4634     411.2059    400.30648    538.14755    34646.235 
   48500     295.0289   -1369.7485    437.12302    399.70351    395.88736    34646.235 
   48600    303.32815    -1383.876    428.25123    414.18304    621.00386    34646.235 
   48700    298.58513   -1385.2695    408.83246    371.95163    119.91131    34646.235 
   48800    297.02147   -1353.4469    405.12925    393.00969    275.75782    34646.235 
   48900    310.11318   -1367.8549    442.31541    474.90902    205.10952    34646.235 
   49000     301.3268   -1364.5389    441.45311    437.68412    619.32428    34646.235 
   49100    301.89115   -1326.9789    430.95365    467.29321    22.874086    34646.235 
   49200    304.06394   -1376.9082    433.98986    430.21226    510.09303    34646.235 
   49300    299.59486    -1318.402    451.44774    485.99429    608.11484    34646.235 
   49400    295.82316   -1330.2762    432.66774     438.3074    760.52432    34646.235 
   49500     287.3228   -1357.2266    422.86955    363.17183    265.21756    34646.235 
   49600    309.15394   -1347.4533    445.31937    493.98272    485.89024    34646.235 
   49700    303.83579   -1350.3659    446.78207    468.51651   -476.78408    34646.235 
   49800     302.9328   -1274.1681    459.11033    552.96469   -445.19242    34646.235 
   49900    311.93673   -1327.7202    395.92959    476.89298   -114.92722    34646.235 
   50000    304.50844   -1322.0212    401.12295    454.23971   -127.07844    34646.235 
   50100    304.70655   -1327.3343    433.56363     482.2619    100.14093    34646.235 
   50200    302.80212   -1343.9875     434.6456    458.09047   -191.48964    34646.235 
   50300    302.69092   -1344.6972    429.91613    452.14909   -405.08361    34646.235 
   50400    300.82526   -1377.8465    427.53971    408.19822    178.99776    34646.235 
   50500    303.82099   -1306.0636    436.40903    502.37893    204.69817    34646.235 
   50600    294.86473   -1336.8429    430.48913    425.23387    166.03263    34646.235 
   50700    290.31971   -1348.9423    436.08924    398.20962    749.32585    34646.235 
   50800    293.84737   -1305.6838    432.69489     454.0044    534.99078    34646.235 
   50900    301.02573   -1352.7414    431.25365    437.92249    975.66027    34646.235 
   51000    310.24393   -1384.2616    438.86337    455.64075    618.45703    34646.235 
   51100    301.02908   -1346.8412    442.66912    455.25331    952.00205    34646.235 
   51200    296.88376   -1314.0196    468.67828    495.36412    923.13707    34646.235 
   51300    297.68406   -1397.2928    405.26912     352.2959    27.276052    34646.235 
   51400    303.84512   -1369.0905    410.71137    413.76327   -415.22294    34646.235 
   51500    297.93532   -1374.3068    437.97201    409.11942   -67.913317    34646.235 
   51600    298.02166   -1357.7603    429.76245    417.84632   -1223.8937    34646.235 
   51700    305.88671   -1358.3108    413.44247    436.49377   -255.94854    34646.235 
   51800    292.19559   -1380.9381    403.42367    342.01955   -74.054379    34646.235 
   51900     296.0146   -1368.5561    418.21096     386.4353   -706.38249    34646.235 
   52000    288.18074   -1390.6231    403.71235    314.49251    -168.1549    34646.235 
   52100    306.27497    -1361.527    446.36557    467.95404   -217.85068    34646.235 
   52200     296.3729   -1336.2782    414.36888    416.48916   -136.74686    34646.235 
   52300    300.61715   -1386.8663    415.52584    386.22472   -78.677058    34646.235 
   52400    291.99715   -1376.4568    424.12488    366.30592   -165.85697    34646.235 
   52500    308.85988    -1363.536    436.84682    468.09954     -275.951    34646.235 
   52600     289.9979   -1323.5864    451.58117    437.60419    190.56436    34646.235 
   52700    290.43439   -1331.3256    456.44722    436.70224     344.1913    34646.235 
   52800    304.02245   -1355.7262    443.06314    460.28021    932.75991    34646.235 
   52900    296.05533   -1375.8121    421.59281    382.74497   -202.29347    34646.235 
   53000    313.77653   -1316.8722    409.21209    509.33187    319.58699    34646.235 
   53100    299.53473   -1333.1394     431.3569    450.89456    126.18421    34646.235 
   53200    293.70728   -1365.1455    432.61512    393.83038   -23.704674    34646.235 
   53300    303.14541   -1374.4019    441.47159    436.05235   -178.52628    34646.235 
   53400    306.48754   -1368.8571    432.22712    447.44544    38.500366    34646.235 
   53500    303.13567   -1403.2329    425.48881     391.1945   -48.016747    34646.235 
   53600    302.28622   -1341.5392    412.79436    436.35768    380.70862    34646.235 
   53700    295.95594   -1368.3262     428.4036    396.59289   -147.75649    34646.235 
   53800    289.94708   -1407.0353    420.00249     322.3471    90.295496    34646.235 
   53900    297.85192   -1370.6353    421.15051    395.59274     27.98141    34646.235 
   54000    304.17824   -1360.0653    420.92161    434.50311   -499.10607    34646.235 
   54100    289.85074    -1404.528    433.96818    338.38502   -566.24502    34646.235 
   54200      303.803   -1364.1524    450.58171    458.38157   -677.29004    34646.235 
   54300    308.00099   -1346.8312     431.9933    476.07214    660.32199    34646.235 
   54400    296.16137   -1368.0775    437.35092    406.71661   -107.30009    34646.235 
   54500    301.34456   -1375.4789    430.03822     415.4094    239.14438    34646.235 
   54600    305.59659   -1406.7596    411.56532    384.85765    100.63139    34646.235 
   54700    305.20846   -1367.2935    418.11778    429.12346    757.22079    34646.235 
   54800    298.91512   -1377.5702    431.97884     404.2875   -332.06336    34646.235 
   54900    299.97202   -1382.2335    433.40041    405.81876    226.29372    34646.235 
   55000    288.29647   -1399.5285     431.3403    333.73762   -8.6124021    34646.235 
   55100    305.94911   -1383.9815    408.25887    405.92128   -581.69516    34646.235 
   55200    297.32052   -1324.6501    424.20459    442.23237    472.98503    34646.235 
   55300    302.68241   -1382.0069     428.6096     413.4944    61.947617    34646.235 
   55400    300.83016   -1377.4502     417.9323    399.00925    253.61107    34646.235 
   55500    291.24098   -1355.0102    431.97008    392.18298     81.13369    34646.235 
   55600    294.22652   -1313.1358    425.87058    441.44031    462.70255    34646.235 
   55700    293.64076   -1353.4838    458.49701    431.07355    -188.3015    34646.235 
   55800    301.18189   -1323.7438    425.78972    462.16138   -396.07995    34646.235 
   55900    298.19554   -1349.8718    425.55263    422.31019   -301.83773    34646.235 
   56000    295.94223   -1354.7813    422.68885    404.36111   -601.44758    34646.235 
   56100     304.1246   -1321.4451    426.87431    478.83383   -445.20569    34646.235 
   56200    294.42043   -1354.1716    425.84857    401.25817   -916.82157    34646.235 
   56300     297.2419   -1369.9362    413.00762     385.3942   -210.06966    34646.235 
   56400    297.14216    -1374.554    403.91312    371.23149   -329.39633    34646.235 
   56500    295.92423   -1377.2145    430.74056    389.89831   -359.46255    34646.235 
   56600     291.2029   -1346.0522    453.79713    422.79606   -396.07011    34646.235 
   56700    287.81314   -1365.4258    422.84308    357.16046   -236.89877    34646.235 
   56800    309.51687    -1392.765    426.48055    431.47124    283.13571    34646.235 
   56900    295.07625   -1369.9575    447.51316     410.0985    220.85559    34646.235 
   57000    290.78956   -1371.2583    438.06857    379.99474    326.08145    34646.235 
   57100    302.70694   -1369.7287    438.63519      435.909    581.38676    34646.235 
   57200    298.28361   -1391.0787    440.57106    396.51947    627.51572    34646.235 
   57300    303.75275    -1372.537    434.37673      433.565    942.20747    34646.235 
   57400    291.60852   -1350.5379    459.64696    425.99194    788.40518    34646.235 
   57500    290.74149    -1390.275    429.18613    351.87855    971.33125    34646.235 
   57600    303.31517   -1421.3943    422.05344    370.40842    730.95868    34646.235 
   57700    285.48416   -1425.3232    428.15643    292.05889    304.20841    34646.235 
   57800    297.68999   -1405.3985    427.63808    366.58596   -20.511292    34646.235 
   57900    310.71052   -1381.0383    430.43801    452.54583    145.15095    34646.235 
   58000    297.52507    -1399.074    467.24209    411.76968    688.04094    34646.235 
   58100    300.89531   -1375.9853    445.86343    428.69941    351.66424    34646.235 
   58200    311.00896    -1409.401    404.46671    399.55958    84.846623    34646.235 
   58300    304.74828   -1380.9481    427.38962    422.66258    60.830641    34646.235 
   58400    306.67769   -1420.4294    437.51186    402.01658    231.55075    34646.235 
   58500    312.71262   -1348.8894    436.12692    499.42499    447.86188    34646.235 
   58600     299.5539   -1380.8094    433.81099    405.76527     404.2664    34646.235 
   58700    300.38224   -1444.8904    426.36989    337.98388    413.41518    34646.235 
   58800    294.43785   -1396.5611    453.62727    386.72609    32.636159    34646.235 
   58900    298.26698   -1371.3075    437.43071    413.07514     159.6364    34646.235 
   59000    303.14707   -1366.3778    446.14814     448.7604    302.54413    34646.235 
   59100    299.03951   -1370.5406    438.68594      418.586    199.68357    34646.235 
   59200    299.45085    -1364.727     446.9498      434.521    356.73919    34646.235 
   59300    299.23968   -1377.7639    466.16886    439.74955   -32.289739    34646.235 
   59400    312.05129   -1379.0528    472.12367    502.27178   -15.310567    34646.235 
   59500    296.06068   -1385.9952    432.52674    383.52006    360.44807    34646.235 
   59600    296.85247   -1406.6862    466.28961    400.16757    141.88899    34646.235 
   59700    300.94881   -1426.0123    469.01475    402.06542   -64.398916    34646.235 
   59800    296.74148   -1424.2823    441.48761    357.26825    910.96884    34646.235 
   59900    292.13061    -1405.548    453.75691    367.44945    833.63351    34646.235 
   60000    295.26136   -1411.8997    432.09731    353.57647    670.05548    34646.235 
   60100    310.33799   -1392.1602    432.03364    441.33717    167.59443    34646.235 
   60200    298.94283   -1403.9968    452.32449    398.33174     153.8491    34646.235 
   60300    292.67249    -1387.187    443.67545    378.17607   -367.30971    34646.235 
   60400     292.3265   -1374.7706    444.92972    390.28436   -182.90421    34646.235 
   60500    277.77369   -1339.8081    463.23268    377.83031   -787.32992    34646.235 
   60600    307.72816   -1383.9704    465.88251    471.59006   -528.50124    34646.235 
   60700    300.01618    -1448.282    433.63466    340.20394   -1.3637689    34646.235 
   60800    292.41754   -1453.6419    424.61723    291.51171   -395.19374    34646.235 
   60900    301.64811   -1434.9849    448.51916    375.75523    21.557372    34646.235 
   61000    295.16244   -1441.1893    484.25922    376.00202   -535.46296    34646.235 
   61100    294.29386   -1441.5871     460.5718    347.99438    -281.8742    34646.235 
   61200    311.84072   -1479.2357    452.93924    381.95355   -233.34747    34646.235 
   61300    301.69158   -1411.0284    456.17914      407.568    143.18806    34646.235 
   61400    288.41712   -1402.0739    440.97502    341.37187   -295.50798    34646.235 
   61500    300.23678   -1398.9752     462.3111    419.18336   -94.816579    34646.235 
   61600     292.0019   -1382.6849    466.62349    402.59794    110.45582    34646.235 
   61700    299.18794   -1404.5386     451.0606    397.63295    399.28234    34646.235 
   61800    301.66703   -1400.0384    455.89799    418.16592    276.10141    34646.235 
   61900    294.78143   -1397.5336    465.64137    399.31931    908.28639    34646.235 
   62000     299.0754   -1390.9377     453.0238    412.68889    55.959658    34646.235 
   62100    297.54474   -1389.9849      463.012    416.71749    27.687924    34646.235 
   62200    294.31079   -1360.5739    455.80868    424.32085   -159.68214    34646.235 
   62300    295.47899   -1396.8604    439.86222     377.3634   -169.08035    34646.235 
   62400    289.42092   -1332.4461    465.39445    439.95215   -60.901605    34646.235 
   62500    296.16958   -1355.1154    474.86022    457.22508   -450.73321    34646.235 
   62600    309.69967   -1387.9752    440.06856    450.67455   -15.032461    34646.235 
   62700    303.89319   -1352.7769    464.24511    483.82775   -178.48653    34646.235 
   62800    306.64939   -1324.1691    470.15886    530.79611   -109.76128    34646.235 
   62900    301.53414   -1395.0305    467.70994    434.38565    281.90136    34646.235 
   63000    294.96743      -1367.5    466.30071    430.85215    -277.8307    34646.235 
   63100     294.6003   -1401.2799     454.8911    384.00472   -723.93829    34646.235 
   63200    300.79538   -1373.3431    460.45273    445.47965   -93.582194    34646.235 
   63300    292.38002   -1426.6448    435.29396    329.01607   -893.78316    34646.235 
   63400    301.85136   -1423.2159    467.47563    407.39857   -164.61388    34646.235 
   63500    305.70234   -1437.2969     436.0248    379.25737    561.61428    34646.235 
   63600    295.27769   -1420.2077     470.1125     383.3574    634.08812    34646.235 
   63700    289.75689   -1385.3833     450.7275    373.86525    120.38646    34646.235 
   63800    299.87591    -1422.497    448.18523      379.906    284.51007    34646.235 
   63900    305.17084   -1441.1463    455.85946    392.84246    -184.2673    34646.235 
   64000    299.70662   -1405.0304    450.47234    398.89528    223.52864    34646.235 
   64100    302.73578   -1409.9975    468.59659    425.73186    234.87471    34646.235 
   64200    301.27176   -1400.9997    481.63447    441.15609    86.415594    34646.235 
   64300    301.91115   -1439.1267    472.55442    396.83653    326.03611    34646.235 
   64400    307.86037   -1420.4335    461.15389    430.99537   -205.45872    34646.235 
   64500    314.17087   -1403.9266    439.44592    454.29212   -918.09792    34646.235 
   64600     305.9514   -1383.1573    459.62992    458.12685    -48.85094    34646.235 
   64700    298.66645   -1410.5526    419.60701    357.81034   -3.4635248    34646.235 
   64800     299.0532    -1442.807    465.02189    372.71742   -696.80828    34646.235 
   64900    301.00133   -1382.9202     435.9036    412.28348   -246.62812    34646.235 
   65000    311.54907    -1403.358    442.79568    446.37065   -164.38249    34646.235 
   65100    294.68926   -1378.5793     459.0958    411.31174   -937.89279    34646.235 
   65200     292.7157   -1362.1598    492.70265    452.42559   -763.25961    34646.235 
   65300    307.59473   -1415.6268    475.46666    448.91526   -529.20868    34646.235 
   65400    291.52426    -1382.578    465.23446    399.15879   -659.70049    34646.235 
   65500    287.15378   -1350.9301    480.71594    426.55148   -575.14569    34646.235 
   65600    291.43936   -1409.5065      452.665    359.27738   -749.79596    34646.235 
   65700    300.84881   -1410.0919    450.81348     399.3329   -525.40554    34646.235 
   65800     298.4405   -1395.4442    483.72771     436.0191   -1039.6473    34646.235 
   65900    310.76909   -1359.0551    448.41639     492.7719   -467.08566    34646.235 
   66000    302.29675   -1391.9076    453.64598    426.88847   -337.37899    34646.235 
   66100    302.35957    -1400.225    453.53084     418.7396    143.04146    34646.235 
   66200    296.86759    -1381.348    450.92564    410.21008   -298.23933    34646.235 
   66300    304.22196   -1401.6441    469.88152    442.08164   -147.15119    34646.235 
   66400    293.96571   -1393.9998     468.1406    401.66855   -1001.6186    34646.235 
   66500    303.79405   -1391.6665    451.34836    431.59373   -788.88264    34646.235 
   66600    301.99892   -1411.2456    469.11946    421.67906   -389.53332    34646.235 
   66700    297.29236   -1402.4553    465.61099    405.70636    424.34312    34646.235 
   66800     297.4246   -1449.0589    475.26503    369.35397   -177.93355    34646.235 
   66900     306.3627   -1421.0044    481.35715    443.86439    488.75999    34646.235 
   67000    300.39078   -1406.4859    460.99544    411.05245    423.68489    34646.235 
   67100    298.46104    -1390.832    465.44776     422.4441    900.60604    34646.235 
   67200    308.71611   -1400.4175    478.20448    471.92643    721.77083    34646.235 
   67300    304.21192   -1432.2503    456.07735    397.62596     176.3662    34646.235 
   67400    295.26684   -1406.8313    466.21384    392.78608   -76.487316    34646.235 
   67500    297.68732   -1430.2518    474.66618    388.74864   -348.85949    34646.235 
   67600    290.25766   -1464.0586    444.36279    291.08666    286.14482    34646.235 
   67700    295.83192   -1405.7771    456.26137    386.43968    346.86303    34646.235 
   67800    294.80193   -1416.1852    483.24561    398.36451   -172.71909    34646.235 
   67900    298.20518     -1417.28    431.26274    360.65558    334.39017    34646.235 
   68000    306.39985   -1407.6124    444.64169    420.70874   -363.71436    34646.235 
   68100    299.31446   -1431.6988    459.73741    379.72095   -283.60402    34646.235 
   68200    306.49803   -1404.0468    485.11476    465.19079    797.20017    34646.235 
   68300     304.8391   -1432.1942    478.87048    423.30749    435.89959    34646.235 
   68400    304.06064   -1390.7076    463.13699    445.54515    240.91867    34646.235 
   68500    293.91473   -1429.2099    496.77394    394.86162    212.33387    34646.235 
   68600    302.29845   -1427.5862    469.00743    406.57902    189.85752    34646.235 
   68700    302.93646   -1461.3351    467.02508    373.72895    410.84644    34646.235 
   68800    303.01586   -1427.5623    466.50522    407.34047    212.40479    34646.235 
   68900    288.42829   -1458.3248    476.42274    320.61912   -95.725003    34646.235 
   69000    299.44652   -1463.0003    470.23295    359.51133   -22.395756    34646.235 
   69100     290.6755   -1433.5952    453.99929    333.07352   -684.17869    34646.235 
   69200    293.14412   -1435.0777    465.13911    353.87886    -505.7275    34646.235 
   69300    297.68537   -1417.0943    454.98154    382.21273   -234.63646    34646.235 
   69400    310.44178   -1435.5936    477.95199    444.29084   -163.25002    34646.235 
   69500     298.8165   -1409.2242     471.8484    412.05774   -247.59226    34646.235 
   69600    306.84653   -1397.2153    464.42683    452.90815    223.21629    34646.235 
   69700    300.33349   -1409.8667    454.57012     400.9876   -283.43341    34646.235 
   69800    303.41562    -1402.415    478.59503    446.38289   -388.58234    34646.235 
   69900    309.52599   -1387.9874    482.92319    492.73267   -168.22233    34646.235 
   70000    303.78342   -1476.0433    453.78666    349.60716    142.30781    34646.235 
   70100    296.80366   -1416.7101    464.32263    387.95623    445.20504    34646.235 
   70200    299.66895   -1394.6997    457.71566     416.2991    9.6440109    34646.235 
   70300    292.90001   -1426.5073    451.42999    347.63778    598.86095    34646.235 
   70400    305.46761   -1438.0851    474.40063    415.78506   -449.72925    34646.235 
   70500    312.26007    -1426.591    442.89095    426.44375    116.00683    34646.235 
   70600    301.56837   -1406.0494    441.83495    397.64632   -522.33265    34646.235 
   70700    305.20999   -1463.2564    440.03168    355.08137   -566.45837    34646.235 
   70800    301.01982   -1453.3544    460.31269    366.34188   -499.25679    34646.235 
   70900    294.85349   -1458.8964    454.82544    327.46595   -58.179099    34646.235 
   71000    305.23093   -1429.6942    455.35871    404.06514    -95.22321    34646.235 
   71100    310.19952   -1411.6002     456.5719    445.81011   -601.91358    34646.235 
   71200    294.99721   -1422.2319    481.62201    391.57601   -373.06656    34646.235 
   71300    293.76194   -1410.8749    444.64385    360.37653     285.5631    34646.235 
   71400    313.74383   -1414.9472    470.25211    472.14921    944.97261    34646.235 
   71500    313.62209   -1428.6596    447.06408      434.699    771.64503    34646.235 
   71600    294.57768   -1475.8473    436.93063    291.37473    505.01497    34646.235 
   71700    302.91099   -1459.8424    452.51672     360.5983    416.90619    34646.235 
   71800    294.66563     -1457.72     488.6622    361.63078    339.17831    34646.235 
   71900    299.41518   -1466.1104    443.93934    329.96607    690.08658    34646.235 
   72000    292.93029    -1513.221    459.86551    269.49639   -139.54323    34646.235 
   72100    308.97661   -1455.5283    444.11914    383.90671    40.899947    34646.235 
   72200    295.85195   -1424.1107    462.26319    374.19832   -110.76717    34646.235 
   72300    300.01129   -1419.3894     481.1789    416.61864   -277.12626    34646.235 
   72400    292.03763   -1462.4338    474.83256    331.21951   -675.27011    34646.235 
   72500    298.63836   -1440.6145    450.40788    358.42249   -207.41853    34646.235 
   72600    299.64399   -1414.1337    494.64333    433.68009   -939.56257    34646.235 
   72700    302.44558   -1393.7618    458.45303    430.51352   -744.80748    34646.235 
   72800    300.00433   -1379.7939     459.7872    434.79102   -401.03813    34646.235 
   72900    292.60373   -1408.4253    470.44682    383.39862    -70.52419    34646.235 
   73000    308.51616   -1456.0035    476.37628     413.6093   -40.978929    34646.235 
   73100    297.68622   -1418.4496    458.13842     384.0181    96.123456    34646.235 
   73200    297.10004     -1428.98    475.56376    388.26593   -700.62294    34646.235 
   73300    304.08322   -1399.8499    490.95771     464.3255   -160.54822    34646.235 
   73400    305.83422   -1396.4251    463.29482    447.99482   -28.426503    34646.235 
   73500    296.71015   -1461.1798    461.23416    339.97578    214.66819    34646.235 
   73600    305.30414    -1393.202     488.0845     473.6138     181.3329    34646.235 
   73700    305.31228   -1409.4575    481.91774    451.22824    961.14425    34646.235 
   73800    303.50711   -1452.8342    483.20763     400.9895   -7.7192508    34646.235 
   73900    301.17816   -1448.5472    460.22113    371.77258    455.70231    34646.235 
   74000    308.30828   -1457.2268    476.91537    411.98635    650.23288    34646.235 
   74100    301.58093   -1460.3479    487.20761     388.7773    164.51365    34646.235 
   74200    294.67713   -1472.0157    486.77228    345.49708   -30.566015    34646.235 
   74300    295.95236   -1460.5053    457.49794    333.49196   -433.22423    34646.235 
   74400    315.72167    -1434.562    484.56497    475.77907    198.62606    34646.235 
   74500    304.43622   -1454.1077    474.29211    394.99619    104.87044    34646.235 
   74600    308.11107   -1411.1505    484.98333       465.24    488.55537    34646.235 
   74700     302.6292   -1444.2775     463.4021    385.77605    485.06235    34646.235 
   74800    295.47141    -1401.932     447.9174    380.31281   -93.303951    34646.235 
   74900    304.35366   -1450.4531     483.1587    407.14458   -458.62134    34646.235 
   75000    291.08159   -1475.9215    450.39133    288.97309    304.33017    34646.235 
   75100    300.76253   -1514.4063    462.09106    305.90647    56.772692    34646.235 
   75200     288.6827   -1441.8661    474.41607    336.22005   -393.14506    34646.235 
   75300     295.9881   -1468.4936    490.51059    358.67769   -31.797795    34646.235 
   75400    307.09898    -1462.951    483.39675    407.28237    46.321599    34646.235 
   75500    302.77116   -1448.4434    473.54898    392.39809    66.191884    34646.235 
   75600    305.68997   -1452.4747    470.80016    398.79913   -2.0842954    34646.235 
   75700    300.22102   -1454.2941    453.23464    354.71678   -227.84759    34646.235 
   75800    293.06683   -1441.9587    481.50076    363.01052   -233.03338    34646.235 
   75900    294.41024   -1466.3058    469.70593    332.93533   -274.84543    34646.235 
   76000    296.41301   -1449.8386    472.81307    361.55411    386.94221    34646.235 
   76100    307.59678   -1434.5321    445.84358    400.39615   -411.04369    34646.235 
   76200    307.34602   -1406.7415    459.63991    440.85066   -1254.1403    34646.235 
   76300    306.80916   -1419.8699    489.38505    455.04303   -392.70814    34646.235 
   76400      297.781   -1457.1577    467.04015    354.63978   -567.73101    34646.235 
   76500    299.99076   -1428.7892    464.43039    390.37765   -378.34457    34646.235 
   76600    301.19818   -1441.1157    474.10474    393.17816   -185.82438    34646.235 
   76700    294.93825   -1447.9736    476.42172    360.36782    130.09377    34646.235 
   76800    297.78868   -1408.0325    480.42421     417.1837    88.130645    34646.235 
   76900     291.5894   -1428.5709    494.04251     382.2681    35.123905    34646.235 
   77000    296.24414   -1408.2705    489.00103    418.54747    130.13532    34646.235 
   77100    301.21666   -1402.6233    460.43462    418.08385    544.95631    34646.235 
   77200     300.9845   -1440.5061    485.61089    404.32889    1242.6379    34646.235 
   77300    309.82667   -1433.0424    479.85118    445.96347    1340.8879    34646.235 
   77400     300.5331   -1381.1488    480.63288    456.66963    721.66231    34646.235 
   77500     296.2664   -1363.0284    494.19694    469.08603    325.26609    34646.235 
   77600    303.54015    -1377.812    521.33515    514.28835   -3.3035794    34646.235 
   77700    292.38746   -1401.6345    477.18293    395.94894   -167.29301    34646.235 
   77800    303.33871   -1368.1879    507.08656    508.75417   -996.19679    34646.235 
   77900    297.42519   -1387.3803     470.0509    425.82117   -788.09152    34646.235 
   78000    309.41876   -1407.0123    464.59739     454.8977    104.82598    34646.235 
   78100    299.82423   -1381.3679    479.31689    451.93338   -306.17291    34646.235 
   78200     307.3842   -1377.0589    474.45284    485.51861   -156.65592    34646.235 
   78300     300.2568   -1368.2931    461.92155    449.56632    311.39675    34646.235 
   78400    301.00168   -1423.7485    494.50837     430.0616    471.15449    34646.235 
   78500    301.83699   -1439.6046    479.16951    402.63881    335.59209    34646.235 
   78600    308.49222    -1425.127    476.53852    444.53995   -369.91826    34646.235 
   78700    309.81685   -1410.8951    454.75811    442.97341   -118.71577    34646.235 
   78800    295.37738   -1455.9589     470.4477    348.39159    -40.78293    34646.235 
   78900    292.67279   -1457.5185    460.64861    324.81908   -851.28013    34646.235 
   79000    306.01604   -1409.2769    460.12898    432.79827    4.1733641    34646.235 
   79100    294.56347   -1426.7961    476.05058    379.48172   -536.28467    34646.235 
   79200    308.20721   -1418.4268    482.86073     456.2753   -725.21681    34646.235 
   79300    300.41642   -1415.1597    482.68907    424.18809   -1163.0876    34646.235 
   79400    295.48531   -1423.1293    472.22268    383.48354   -551.14486    34646.235 
   79500    301.86912   -1433.1313    472.74504    402.83268    183.59215    34646.235 
   79600    300.99312   -1401.1413    492.32607    450.44773    109.93655    34646.235 
   79700    307.91427    -1396.337    496.76279     490.9442    -173.3683    34646.235 
   79800    300.57784   -1353.6537    495.00686    498.74076    228.01619    34646.235 
   79900    294.59564    -1409.766    473.58522    394.19173   -937.82075    34646.235 
   80000    300.71033   -1465.6074    473.07999    365.45857   -441.04203    34646.235 
   80100    294.87644   -1413.3614    472.31389    390.59303    188.20972    34646.235 
   80200    311.39856   -1414.9527    485.86467    477.16521    130.56591    34646.235 
   80300    300.10505   -1440.0256    492.43332    407.66034    231.77946    34646.235 
   80400    298.89863   -1409.3781    473.05957    413.48596   -191.33727    34646.235 
   80500    284.32989   -1422.3577    471.67619    333.33155    -131.6607    34646.235 
   80600    308.00767   -1411.9492    494.14153    473.13257    424.18494    34646.235 
   80700    295.46252    -1394.472      468.225    408.04018    904.11753    34646.235 
   80800    305.12739   -1424.4498    502.07875    455.56207    574.38379    34646.235 
   80900    312.26205   -1385.2651    488.93245    513.82006    195.93296    34646.235 
   81000    306.85131   -1387.4769    463.69886    461.94018    635.70863    34646.235 
   81100    298.14318   -1461.9122    481.47154    365.95225   -16.588833    34646.235 
   81200    284.91798    -1507.131    489.07587    268.61377   -345.89993    34646.235 
   81300    299.07592   -1471.2461    493.30667    372.66566    387.17841    34646.235 
   81400     298.3195    -1464.061    495.76652    378.89468    552.84314    34646.235 
   81500    308.40182   -1444.8592    469.24112    417.10208    215.12621    34646.235 
   81600     303.8344    -1439.871    470.37972    402.60278    332.74012    34646.235 
   81700    304.46366    -1402.658    467.78592    440.06365    44.762377    34646.235 
   81800    293.74775   -1429.3597    484.42074    381.60454    596.78445    34646.235 
   81900    292.96683   -1457.2214    477.02598    342.82153    676.08903    34646.235 
   82000     304.4824   -1458.2514    482.24969    399.01864    180.60034    34646.235 
   82100    308.50611   -1449.7237    463.37277    406.84018    633.01416    34646.235 
   82200    298.88399   -1443.5095    467.79651    374.02539    33.022889    34646.235 
   82300    295.31501   -1468.6531    485.95801    350.92603    612.59965    34646.235 
   82400    296.78212   -1453.8256    515.61707    402.03792     89.12492    34646.235 
   82500    294.71803   -1442.8471    482.67303    370.75113   -500.17679    34646.235 
   82600    306.17851   -1432.3226    487.79958    438.15684   -450.37983    34646.235 
   82700    291.82256   -1410.6485    492.22383    399.42476    15.052856    34646.235 
   82800    296.90325   -1425.2928    485.58049    401.08115    35.584556    34646.235 
   82900    291.13663   -1432.5825    496.29766    378.46703     75.08857    34646.235 
   83000    297.16661   -1410.9378    473.24538    404.29034    -239.2358    34646.235 
   83100    307.84659   -1458.9992    484.49532    415.70896    322.44206    34646.235 
   83200    307.19761   -1388.4543     497.8321    496.65984    730.28426    34646.235 
   83300    303.31364   -1417.1848    484.34385    436.90135    811.75169    34646.235 
   83400    293.62786   -1377.6552    468.43061    416.77746    157.26309    34646.235 
   83500    304.01024   -1379.2847    509.70082    503.30421    471.24531    34646.235 
   83600    288.31397   -1434.6127    500.78178    368.17404   -260.52501    34646.235 
   83700    302.90257   -1399.4126    484.23938    452.71269    9.3549344    34646.235 
   83800    307.67765   -1427.5698    488.39852    450.27857   -130.10135    34646.235 
   83900    310.78617     -1386.82    475.33477     492.0025    319.25429    34646.235 
   84000    293.14765   -1438.9074    493.04122    377.96732    424.24148    34646.235 
   84100    284.05336   -1442.0368    472.06948    312.79698    359.55657    34646.235 
   84200    306.26917   -1450.7002    518.56834    450.95739    693.74518    34646.235 
   84300    303.03587   -1440.4033    488.14811    416.23275    206.93898    34646.235 
   84400    293.01659    -1435.583    473.06223    360.72088    -299.5549    34646.235 
   84500    292.29593   -1482.0154    486.79734    324.76914   -542.12795    34646.235 
   84600    308.40662   -1448.1182    488.88427    433.50791   -758.45742    34646.235 
   84700    292.53739   -1427.4384    467.94143    361.58061   -838.22485    34646.235 
   84800    320.61891    -1468.981    467.24852    446.15923    -254.3544    34646.235 
   84900     309.4164   -1426.9845    496.17355    466.49104   -35.999363    34646.235 
   85000    298.70458   -1466.0504    481.50601    364.38377   -30.841049    34646.235 
   85100    306.84862   -1490.7029    497.29953    392.30265   -169.97498    34646.235 
   85200    299.91539   -1457.9959     489.3826    385.78278    325.24861    34646.235 
   85300     307.5124    -1444.983    494.82661    438.54721    1079.9085    34646.235 
   85400    296.28488   -1456.2266     481.1643    362.93866    691.76361    34646.235 
   85500    300.79523   -1497.9193      465.305     325.7551    364.33097    34646.235 
   85600     304.6175   -1509.4258    490.12114    356.32577     916.0553    34646.235 
   85700    287.18464   -1476.2708     506.5881    327.22221    1018.7478    34646.235 
   85800     308.1233   -1445.4284    484.58217    430.61616    671.20347    34646.235 
   85900    307.72617   -1494.1701    500.43513    395.93405    251.39484    34646.235 
   86000    324.02722   -1480.1194    465.86769    449.03167    423.11568    34646.235 
   86100    304.31422   -1477.9086    500.21073      396.563    158.94326    34646.235 
   86200    306.81435   -1444.1788    508.73274     450.1052    301.45683    34646.235 
   86300    301.46685   -1443.8301    514.85221    432.42446    45.222011    34646.235 
   86400    302.69857   -1447.4969    510.47018    429.93801    365.33596    34646.235 
   86500    308.83907   -1449.4079    469.55074    414.83761     264.3325    34646.235 
   86600    302.69987   -1443.2864    506.49283    430.17702    334.07239    34646.235 
   86700    285.13145   -1450.9021    501.91032    338.64113    298.89597    34646.235 
[...]
  984600      307.866    -1483.539    529.47785    436.23929   -577.12588    34646.235 
  984700    302.55017   -1511.7004      487.883    342.47716   -309.95571    34646.235 
  984800    295.58423   -1523.9567    503.10683    313.98704   -229.26523    34646.235 
  984900    296.56874    -1523.862     547.0937    362.51456   -436.99993    34646.235 
  985000    287.65382   -1534.0373    485.20395     250.1904   -304.88581    34646.235 
  985100    302.27381   -1509.2699    528.81895    384.59551   -379.15082    34646.235 
  985200    291.20489   -1602.6532    531.57363    243.98054    207.52985    34646.235 
  985300    303.56556   -1561.3352    502.44372    311.98851    261.99308    34646.235 
  985400    289.11789   -1553.7767    512.21044     264.0691   -445.82023    34646.235 
  985500    303.70284   -1548.3821    542.58148    365.69934   -40.558518    34646.235 
  985600    293.04885   -1525.7738    485.28752      282.901   -665.95841    34646.235 
  985700    300.06311   -1573.0905    509.93928    291.91193    510.03854    34646.235 
  985800    304.52124   -1567.2693    524.45695    332.38339    493.00689    34646.235 
  985900    307.86542   -1572.7823    477.59193    295.10744    577.57106    34646.235 
  986000    296.36828   -1553.7798    514.00497    298.60273    301.50038    34646.235 
  986100    306.31997   -1458.0134    536.42325    461.72849    757.17933    34646.235 
  986200    297.63427   -1521.5639     517.8242    340.35502    734.45938    34646.235 
  986300    295.75503   -1529.8243    512.24132    318.02521   -25.701851    34646.235 
  986400    290.69993   -1513.5118    511.08573    310.35363    335.03668    34646.235 
  986500    299.04213    -1523.566    532.60475    359.49126    277.93276    34646.235 
  986600    292.28328   -1523.9954    547.64795    343.58263    131.78554    34646.235 
  986700    298.26882   -1523.4204    494.60699    318.14687    568.70626    34646.235 
  986800    289.30893    -1531.528    525.12327    300.09331    697.40363    34646.235 
  986900    306.00357   -1518.4905    513.12347    376.52282   -55.656421    34646.235 
  987000     292.2769   -1500.0481    505.72624    325.57931   -177.60919    34646.235 
  987100    308.54554   -1564.9555    516.66157    345.07524   -221.67848    34646.235 
  987200    297.44555    -1509.758    539.92636    373.41079    266.64886    34646.235 
  987300    306.47135   -1515.3265    505.61102    374.28679   -218.49482    34646.235 
  987400    296.37398   -1560.4291    510.18429    288.15857   -258.35867    34646.235 
  987500    296.51361   -1564.4256    496.65568    271.26398   -141.82051    34646.235 
  987600    306.08941   -1577.3148    498.72918    303.69193     45.40871    34646.235 
  987700    310.44757    -1563.341    494.11776    332.73538   -105.52973    34646.235 
  987800    299.60134   -1562.3975    506.73044    297.31076   -303.77821    34646.235 
  987900    308.74877   -1566.8696    521.35021    348.76756   -93.646602    34646.235 
  988000    295.87202   -1520.5807    516.55388    332.10966    203.39055    34646.235 
  988100    300.31538   -1519.7882    475.30324    311.71747    102.34776    34646.235 
  988200    300.99231   -1516.0609    549.67645    392.87494   -240.62257    34646.235 
  988300    295.72993   -1523.4246    507.44372      319.514   -624.78248    34646.235 
  988400    292.64299   -1528.4419    519.53654    312.64911   -743.15191    34646.235 
  988500    304.55387   -1558.0067     519.6228    336.95918    -883.8583    34646.235 
  988600    288.42032   -1528.0248    508.23152    282.69192   -629.69837    34646.235 
  988700    289.12461    -1495.851    511.36672    321.18139   -158.39789    34646.235 
  988800    300.70656   -1503.6558    512.73853    367.05173   -531.75628    34646.235 
  988900    305.14282   -1472.6906    493.36285    398.67503   -222.61553    34646.235 
  989000    307.20844   -1521.4904    536.82935    402.66994     -571.061    34646.235 
  989100    296.45331   -1534.1976    508.10427     312.6682   -147.69482    34646.235 
  989200    300.98304   -1512.2954    519.57429    366.49635    291.21167    34646.235 
  989300    298.03077   -1510.7974    523.61517    358.70309    471.20368    34646.235 
  989400    299.52516   -1521.4455    509.80517    340.99352    144.82439    34646.235 
  989500    298.36895    -1495.317    505.83496    357.93047   -48.614133    34646.235 
  989600    302.22412   -1481.2668    516.34605    399.90141   -311.82401    34646.235 
  989700    300.62247   -1535.2745    523.38211    345.69679   -522.13156    34646.235 
  989800    305.55968   -1575.9092    495.20535    299.18141   -587.05715    34646.235 
  989900    304.93787   -1557.4404    523.79992    343.43673   -58.647809    34646.235 
  990000    299.08569   -1544.5864    507.76002    313.82282   -180.49917    34646.235 
  990100     302.8169   -1549.8711    493.75082    311.37881   -192.22288    34646.235 
  990200    299.51702   -1563.2806    518.98363    308.30011    849.63475    34646.235 
  990300     294.2931   -1549.4965    519.75875    299.26849     998.7746    34646.235 
  990400    299.71055   -1519.6488    520.52483    354.34711    854.21062    34646.235 
  990500    292.43839   -1539.6132    527.41393    308.43118    543.22116    34646.235 
  990600    315.12839   -1510.1842    499.98033    412.89301    5.4038148    34646.235 
  990700    305.16701   -1488.6554    497.46548    386.92214    149.71374    34646.235 
  990800    298.16833    -1516.224    546.20172    376.48419    841.21763    34646.235 
  990900    306.81702   -1498.7072    512.23985    399.09595    678.83075    34646.235 
  991000     295.5211   -1506.4185    500.05715    328.19046   -20.667407    34646.235 
  991100    294.51534   -1531.0451    533.78753    332.75224   -174.38349    34646.235 
  991200     296.2041   -1488.6372    530.74514    379.74408    343.50361    34646.235 
  991300    300.28591   -1473.0982    520.46525    403.43635    835.46434    34646.235 
  991400    297.42841   -1517.4913    528.28154    353.95536    958.65051    34646.235 
  991500    302.30709   -1530.3079    523.83068     358.7196    677.96052    34646.235 
  991600    297.88858    -1535.733    537.92105    347.43126    1298.9841    34646.235 
  991700    301.76867   -1575.9124    507.90064    294.75357    670.58533    34646.235 
  991800    298.00004   -1534.1545    504.09367    315.68562    646.35301    34646.235 
  991900    295.26051   -1524.2804    509.78279    318.87737    277.24585    34646.235 
  992000    294.83853   -1554.7823    518.40169    295.08873    450.07165    34646.235 
  992100    304.78923   -1538.5309    503.21729    341.09234    577.48011    34646.235 
  992200    289.34632   -1518.7934    521.74853    309.62202    25.923883    34646.235 
  992300    291.19456   -1520.6758    512.03488    306.37247   -234.35142    34646.235 
  992400    289.23782   -1536.3819    521.27844    291.07348    -897.1941    34646.235 
  992500    301.06709    -1548.825    476.77973     287.5518   -91.368382    34646.235 
  992600     298.6181   -1533.2323    510.90743    326.21269   -566.84969    34646.235 
  992700    303.27846   -1523.7088    541.36458    387.23927   -551.31269    34646.235 
  992800    295.94243   -1549.8366     488.3011    274.91901    297.29801    34646.235 
  992900    300.51832   -1566.8339    489.81254    280.09747    -215.9745    34646.235 
  993000     294.2817   -1552.0548    512.58524    289.48515    63.232169    34646.235 
  993100    287.08344   -1577.6312    512.18785    231.00451   -247.18369    34646.235 
  993200    302.44018    -1560.964    499.29389    304.12771    288.25157    34646.235 
  993300    294.00153   -1582.9681    484.58242    229.30379    218.14081    34646.235 
  993400    301.47189   -1596.4989    537.46028    302.38647   -23.182381    34646.235 
  993500    307.89767   -1548.2515    487.28506    329.47709    111.11335    34646.235 
  993600    308.53444    -1589.393    469.01455    272.94061   -266.20625    34646.235 
  993700    310.97959   -1606.7142    516.77097    314.41793    370.88657    34646.235 
  993800     305.2812   -1567.8374    515.75612    326.54645   -47.001297    34646.235 
  993900    295.83243   -1589.9517    512.20229    258.20831    298.18025    34646.235 
  994000    301.08907   -1566.8279    524.12556    316.99394    125.39792    34646.235 
  994100     301.3964   -1564.0025    492.13555     289.2173   -215.68092    34646.235 
  994200    303.47878   -1555.0206    478.50483    293.97227   -494.21181    34646.235 
  994300    291.45895   -1548.0507    539.95428    308.11098     30.20655    34646.235 
  994400    297.59479   -1551.9228    508.44695    300.44056    604.76837    34646.235 
  994500    297.47276   -1583.5677    517.73924    277.53686    8.9203053    34646.235 
  994600    303.48282   -1524.2205    501.77051    348.05635   -621.70281    34646.235 
  994700    303.88682   -1538.1905    484.40691    318.54716   -326.08673    34646.235 
  994800    292.32811   -1541.9243    521.05393    299.26216    273.45307    34646.235 
  994900    302.66925   -1561.7619    541.35903    346.42945   -262.72676    34646.235 
  995000    291.09744   -1551.4525    504.73549    267.85786   -122.22745    34646.235 
  995100    292.60252   -1549.3187    513.36833    285.42132   -631.70685    34646.235 
  995200    301.15815   -1559.7054    508.92751    309.23033   -693.09719    34646.235 
  995300    296.29934   -1488.4687    526.33328    375.93086    17.581591    34646.235 
  995400    287.81953   -1531.0658    504.94695    273.65324   -291.22456    34646.235 
  995500    306.13882   -1495.8239    521.76605    408.44279    261.99482    34646.235 
  995600    297.88217   -1540.5337    518.78972    323.47021    -242.7935    34646.235 
  995700    316.24885   -1547.8698    547.97941    428.26642    300.37709    34646.235 
  995800    298.01441   -1509.0444    491.11434    327.88128    141.39964    34646.235 
  995900    298.32438    -1535.168    504.98906    317.03227    50.194586    34646.235 
  996000     299.7204   -1527.6549    503.91085    329.77142   -337.09701    34646.235 
  996100    302.61162   -1461.2103    551.65665    457.01845   -454.52246    34646.235 
  996200    306.70194   -1485.9844    495.40455    394.46376   -906.08294    34646.235 
  996300      299.553   -1445.0221    511.54221    419.27962   -874.21244    34646.235 
  996400    298.19765    -1432.556    529.21503    443.29795   -772.85199    34646.235 
  996500    296.97187   -1466.2383    521.37296    396.23804     -722.217    34646.235 
  996600    303.92419   -1432.5327    515.21199    455.17884      149.711    34646.235 
  996700    296.89438   -1505.8258    509.32865    344.25626   -112.41847    34646.235 
  996800    288.54261   -1472.6306    519.09492    349.50182   -729.07679    34646.235 
  996900    300.87099   -1474.1261    521.81212    406.39753   -695.37236    34646.235 
  997000      297.025   -1488.1326    542.14427    395.35495    -354.0848    34646.235 
  997100    305.83548   -1548.9203     487.2217    319.43212    -312.5703    34646.235 
  997200    297.62774   -1516.5506    530.32778    357.84236   -57.771372    34646.235 
  997300    298.43053   -1466.4906    499.89492     381.0949   -405.18937    34646.235 
  997400    308.34911   -1521.5507    491.92834    362.85975    46.590251    34646.235 
  997500    285.10128   -1514.6073     524.3155    297.20485   -503.73774    34646.235 
  997600    304.99677   -1483.9253    518.28097    411.69893   -333.00649    34646.235 
  997700    298.24946    -1472.834    523.15115    397.19002   -532.75816    34646.235 
  997800    294.30109   -1468.4124    548.31262    408.94248    320.41872    34646.235 
  997900     307.2534   -1496.4277    520.35246    411.45872   -540.52651    34646.235 
  998000    297.70691   -1494.1095    466.30347    316.61667   -479.56586    34646.235 
  998100    294.31098   -1470.8621    516.99309    375.21792   -1043.5219    34646.235 
  998200    292.19858   -1476.9222    537.89207    380.51743   -405.01144    34646.235 
  998300     310.1371   -1538.0156    518.61088    381.15185   -534.13599    34646.235 
  998400    309.04206   -1543.2866    525.78073     378.1056   -590.59616    34646.235 
  998500    292.74416    -1474.881    519.15941    366.28973   -288.27173    34646.235 
  998600    298.67158   -1501.1842    486.29268    333.88757    443.81053    34646.235 
  998700    292.06245   -1477.8413    509.85565    350.94711    906.42162    34646.235 
  998800    301.56027   -1496.1106    529.52215    395.23576    41.530004    34646.235 
  998900    303.89274   -1514.5778    515.68621    373.46597   -304.75653    34646.235 
  999000    291.81545    -1493.729    509.74595    333.83428   -496.87743    34646.235 
  999100    298.67105   -1512.8929     527.2332    363.11709     295.4313    34646.235 
  999200    310.16331   -1535.2235    511.06478    376.51626    955.25236    34646.235 
  999300    292.98328   -1470.5519    505.07343    357.61274    700.25603    34646.235 
  999400    307.12239   -1526.0881     498.8299    359.68418    43.555633    34646.235 
  999500    303.06382   -1502.9079    510.40234    376.10857   -495.60889    34646.235 
  999600    303.43789   -1529.5127    491.48371    332.27442    -453.0022    34646.235 
  999700    306.46288   -1504.8541    535.56865    414.67864    -372.5871    34646.235 
  999800    299.46038   -1476.6629    492.94801    368.62635   -217.15624    34646.235 
  999900    307.50953    -1514.948    503.34663    377.08931    559.80901    34646.235 
 1000000    311.68325   -1524.2799    508.46383     391.7228    431.81379    34646.235 
 1000100    302.17568   -1536.7674    509.34543    337.18145   -203.50965    34646.235 
 1000200    307.19615   -1533.5271    528.84696    382.59528       -1.012    34646.235 
 1000300    306.15902    -1549.016    521.89167    355.46758    384.36136    34646.235 
 1000400    303.95448   -1529.6699     495.9701     338.9365     184.2654    34646.235 
 1000500    300.49849   -1569.8145    505.02503    292.23986    941.36462    34646.235 
 1000600    296.42002   -1542.3865    519.64658    315.87135    208.02849    34646.235 
 1000700    304.05785   -1559.8257    541.57695    354.85437    519.93834    34646.235 
 1000800    283.34604   -1569.1878    493.84928    204.23161    119.91566    34646.235 
 1000900     295.5469    -1575.867    525.73781    284.53909    223.38538    34646.235 
 1001000    300.34592   -1500.8863    509.44992    364.90394    989.26873    34646.235 
 1001100    290.40436   -1562.6537    504.00782    252.79908      830.407    34646.235 
 1001200    296.62137   -1549.1335    496.33704    286.72404    503.03888    34646.235 
 1001300    295.22615   -1546.6053     518.5988    305.21328    94.638253    34646.235 
 1001400    293.32701   -1584.6518    507.38127     247.3729   -558.77221    34646.235 
 1001500    286.29636   -1529.8181    500.09213    263.16755   -921.51361    34646.235 
 1001600    294.76725   -1563.2027    500.45753     268.4023   -768.70201    34646.235 
 1001700    301.03357   -1531.5324    511.03538    338.94871   -418.79907    34646.235 
 1001800    290.52927   -1572.4761    523.18554    262.71842   -293.69037    34646.235 
 1001900    301.98839   -1578.1358    512.57255    298.19431   -693.79729    34646.235 
 1002000    307.90752   -1565.4602    482.63503    307.66279   -519.61554    34646.235 
 1002100     298.3429   -1587.1805    497.04408    257.15843   -633.67087    34646.235 
 1002200    297.71465   -1557.5961    510.40261    297.26422    558.67897    34646.235 
 1002300    295.47298   -1582.9087    496.78144    248.20718    279.90247    34646.235 
 1002400     297.4165   -1537.8419    508.69648     313.9659    91.763805    34646.235 
 1002500     307.2044    -1497.987    500.77924    390.10495    432.54292    34646.235 
 1002600    299.89774    -1542.103    504.23304    316.44635    827.58946    34646.235 
 1002700    295.09044   -1516.1556    498.11098    314.56238   -72.080758    34646.235 
 1002800    300.28205   -1529.5452    499.10388    325.61056   -9.2401064    34646.235 
 1002900    291.41941   -1534.8442    511.02984    292.21451    285.69831    34646.235 
 1003000    294.38228   -1526.8692    497.09968     299.6394    349.98603    34646.235 
 1003100    307.46173   -1543.7569     491.8276    336.54548    89.868696    34646.235 
 1003200     305.8414   -1513.9631    508.35877    375.55322   -290.43541    34646.235 
 1003300    299.26396   -1521.0223    526.45585    356.88779   -919.53249    34646.235 
 1003400    309.16766   -1497.0026    495.87893    395.05505   -504.61169    34646.235 
 1003500    299.77117   -1472.2146    495.74224    377.27247   -138.15691    34646.235 
 1003600    303.01422   -1483.3458     544.6259    429.67031   -264.95748    34646.235 
 1003700    299.52436    -1517.884    517.01395    351.76011   -508.65189    34646.235 
 1003800    310.87869   -1456.0302    512.06787    459.94316   -672.23979    34646.235 
 1003900    285.98756   -1448.6093    479.13371    322.02341   -881.16071    34646.235 
 1004000    301.59585   -1498.8346     520.0964    383.24675   -801.61151    34646.235 
 1004100    291.18448   -1477.7411     515.4403    352.66715   -675.15577    34646.235 
 1004200    300.57778   -1503.0459     501.0109    355.35236    134.87061    34646.235 
 1004300    297.29786   -1485.5299    539.75243    396.79807    47.103514    34646.235 
 1004400    300.76873   -1517.7699    527.97369    368.45345    349.07783    34646.235 
 1004500    293.22196   -1522.3946    520.22996     322.0044   -339.12749    34646.235 
 1004600    295.83394   -1487.5265    511.87517    360.31321    188.57808    34646.235 
 1004700    309.93752   -1455.6289    508.80041    452.82685    240.64583    34646.235 
 1004800    301.60742   -1493.0838    494.42175     363.3751   -164.56884    34646.235 
 1004900    297.34347   -1557.2694    512.82616    298.33824    -119.4915    34646.235 
 1005000    295.60963    -1522.046     501.9202    314.82572    130.52238    34646.235 
 1005100    303.79012   -1531.4399    500.48055    340.93466   -59.513572    34646.235 
 1005200     300.2845   -1522.7078    515.04924    348.40443   -312.32386    34646.235 
 1005271    295.65508   -1506.7862     511.7347    340.10529   -22.990771    34646.235 
Loop time of 590.935 on 32 procs for 1000000 steps with 1516 atoms

Performance: 146.209 ns/day, 0.164 hours/ns, 1692.234 timesteps/s
100.0% CPU use with 32 MPI tasks x no OpenMP threads

MPI task timing breakdown:
Section |  min time  |  avg time  |  max time  |%varavg| %total
---------------------------------------------------------------
Pair    | 271.15     | 290.25     | 320.48     |  75.6 | 49.12
Bond    | 1.4466     | 1.6059     | 1.7691     |   7.1 |  0.27
Neigh   | 38.084     | 38.157     | 38.234     |   1.0 |  6.46
Comm    | 218.11     | 248.27     | 267.41     |  81.7 | 42.01
Output  | 0.3886     | 0.40558    | 0.85579    |  12.7 |  0.07
Modify  | 8.9363     | 9.0774     | 9.2655     |   2.8 |  1.54
Other   |            | 3.164      |            |       |  0.54

Nlocal:        47.3750 ave          76 max          14 min
Histogram: 1 1 1 4 4 9 7 3 1 1
Nghost:        2132.19 ave        2201 max        2084 min
Histogram: 5 2 5 4 6 2 2 3 1 2
Neighs:        5694.06 ave       10785 max        1204 min
Histogram: 2 1 2 6 9 4 5 2 0 1

Total # of neighbors = 182210
Ave neighs/atom = 120.19129
Ave special neighs/atom = 2.0395778
Neighbor list builds = 49594
Dangerous builds = 0

# Output the system volume
variable v equal vol
print 'The system volume is $v'
The system volume is 34646.2345436659

# Outputs
variable A equal xhi-xlo
variable B equal yhi-ylo
variable C equal zhi-zlo
variable D equal xy
variable E equal xz
variable F equal yz
print 'Lattice vectors'
Lattice vectors
print '$A 0 0'
32.6000810916929 0 0
print '$D $B 0'
0 32.6000810916929 0
print '$E $F $C'
0 0 32.6000810916929
Total wall time: 0:09:55
