LAMMPS data file
 1515 atoms
 1014 bonds
 524 angles
 25 dihedrals
 2 impropers
 7 atom types
 8 bond types
 4 angle types
 3 dihedral types
 1 improper types
 0 15 xlo xhi
 0 15 ylo yhi
 0 15 zlo zhi
 0 0 0 xy xz yz

# Atom types
#
# 1 C_3
# 2 N_2
# 3 C_2
# 4 O_2
# 5 H_
# 6 H__HB
# 7 O_3

# Bond Coeffs
#
# 1 C_3*N_2
# 2 C_3*H_
# 3 N_2*C_2
# 4 C_2*O_2
# 5 C_3*C_2
# 6 C_3*C_3
# 7 N_2*H__HB
# 8 O_3*H__HB

# Angle Coeffs
#
# 1 C_3
# 2 N_2
# 3 C_2
# 4 O_3

# Dihedral Coeffs
#
# 1 B1
# 2 C1
# 3 A1

# Inversion Coeffs
#
# 1 1

 Masses

 1 12.01
 2 14.01
 3 12.01
 4 16
 5 1.01
 6 1.01
 7 16

 Atoms # full

1 1 1 0 3.84321982107556 4.63108664254449 8.60332436694195
2 1 2 0 3.92487686951039 3.28456949527886 8.07993178143797
3 1 3 0 2.84055338562334 2.6666070479163 7.49669617215068
4 1 4 0 2.93688630321695 1.49157549968688 7.05960606742
5 1 1 0 1.48415391056777 3.26173525432315 7.32050209731285
6 1 1 0 1.19862035408688 3.61925691159285 5.83566004756261
7 1 5 0 4.80100983130748 5.02379320998739 8.95564863262226
8 1 5 0 3.4954804772561 5.31442627921107 7.82542900140723
9 1 5 0 3.14793351740508 4.66226927649126 9.44475392386777
10 1 5 0 0.743272819869861 2.54113007237025 7.67866926664709
11 1 5 0 1.35447755540091 4.15970374101356 7.92479236682046
12 1 5 0 1.25381189834608 2.71855866702623 5.21733441678471
13 1 5 0 1.98770278065022 4.29259487338549 5.48680583259906
14 1 5 0 -0.139959024985071 4.24563834466874 5.64511292420163
15 1 6 0 5.12319541363592 2.6359039547169 8.1689205632721
16 2 6 0 12.0161720788758 6.98396053322591 14.5521081984043
17 2 7 0 12.9761720788758 6.98396053322591 14.5521081984043
18 2 6 0 13.2161720788758 6.05396053322591 14.5521081984043
19 3 6 0 9.88662858188152 7.21778689226136 12.0150013722014
20 3 7 0 10.8466285818815 7.21778689226136 12.0150013722014
21 3 6 0 11.0866285818815 6.28778689226136 12.0150013722014
22 4 6 0 6.4454916240368 2.07177221932448 4.29706125869416
23 4 7 0 7.4054916240368 2.07177221932448 4.29706125869416
24 4 6 0 7.6454916240368 1.14177221932448 4.29706125869416
25 5 6 0 4.55270276332274 12.9196120569855 2.47441659215838
26 5 7 0 5.51270276332274 12.9196120569855 2.47441659215838
27 5 6 0 5.75270276332274 11.9896120569855 2.47441659215838
28 6 6 0 13.763676594682 14.0561812514812 0.494650213513523
29 6 7 0 14.723676594682 14.0561812514812 0.494650213513523
30 6 6 0 14.963676594682 13.1261812514812 0.494650213513523
31 7 6 0 -0.0734975044894963 12.5959944414813 14.4768471596763
32 7 7 0 0.886502495510504 12.5959944414813 14.4768471596763
33 7 6 0 1.1265024955105 11.6659944414813 14.4768471596763
34 8 6 0 3.19513755312189 10.2725155644026 4.24772018683143
35 8 7 0 4.15513755312189 10.2725155644026 4.24772018683143
36 8 6 0 4.3951375531219 9.34251556440257 4.24772018683143
37 9 6 0 4.59966335372999 13.6394188010041 10.5634080106393
38 9 7 0 5.55966335372999 13.6394188010041 10.5634080106393
39 9 6 0 5.79966335372999 12.7094188010041 10.5634080106393
40 10 6 0 2.66036728673615 8.98422711569816 4.77738227695227
41 10 7 0 3.62036728673615 8.98422711569816 4.77738227695227
42 10 6 0 3.86036728673615 8.05422711569816 4.77738227695227
43 11 6 0 1.89622743448243 1.65078188799322 5.66804199130274
44 11 7 0 2.85622743448243 1.65078188799322 5.66804199130274
45 11 6 0 3.09622743448243 0.720781887993216 5.66804199130274
46 12 6 0 10.752948625451 8.90791311086156 6.12530965358019
47 12 7 0 11.712948625451 8.90791311086156 6.12530965358019
48 12 6 0 11.952948625451 7.97791311086155 6.12530965358019
49 13 6 0 7.80129937266 8.82334696169943 11.436353236204
50 13 7 0 8.76129937266 8.82334696169943 11.436353236204
51 13 6 0 9.00129937266 7.89334696169943 11.436353236204
52 14 6 0 8.43417150361463 5.91187805211171 0.746053695911542
53 14 7 0 9.39417150361463 5.91187805211171 0.746053695911542
54 14 6 0 9.63417150361463 4.98187805211171 0.746053695911542
55 15 6 0 9.28796298729256 0.596115077324212 4.65545129030943
56 15 7 0 10.2479629872926 0.596115077324212 4.65545129030943
57 15 6 0 10.4879629872926 -0.333884922675788 4.65545129030943
58 16 6 0 10.8818128430005 5.27006257366389 11.6001672728453
59 16 7 0 11.8418128430005 5.27006257366389 11.6001672728453
60 16 6 0 12.0818128430005 4.34006257366389 11.6001672728453
61 17 6 0 2.71511273036711 13.5189055713732 7.02974455431104
62 17 7 0 3.67511273036711 13.5189055713732 7.02974455431104
63 17 6 0 3.91511273036711 12.5889055713732 7.02974455431104
64 18 6 0 3.50700093942694 10.5705602657422 10.9089575288817
65 18 7 0 4.46700093942694 10.5705602657422 10.9089575288817
66 18 6 0 4.70700093942694 9.64056026574224 10.9089575288817
67 19 6 0 7.69407956904732 14.1882994775102 13.1532538903411
68 19 7 0 8.65407956904732 14.1882994775102 13.1532538903411
69 19 6 0 8.89407956904732 13.2582994775102 13.1532538903411
70 20 6 0 3.11173710666597 14.403257697532 13.6322203546297
71 20 7 0 4.07173710666597 14.403257697532 13.6322203546297
72 20 6 0 4.31173710666597 13.473257697532 13.6322203546297
73 21 6 0 3.3440844963491 6.39277232619002 7.16553598525934
74 21 7 0 4.3040844963491 6.39277232619002 7.16553598525934
75 21 6 0 4.5440844963491 5.46277232619002 7.16553598525934
76 22 6 0 2.5517833633069 9.47294043068774 7.90485976380296
77 22 7 0 3.5117833633069 9.47294043068774 7.90485976380296
78 22 6 0 3.7517833633069 8.54294043068774 7.90485976380296
79 23 6 0 2.63729990503751 2.91423727566376 10.5769572069403
80 23 7 0 3.59729990503751 2.91423727566376 10.5769572069403
81 23 6 0 3.83729990503751 1.98423727566376 10.5769572069403
82 24 6 0 4.31788295667619 2.45927840512246 5.44878216809593
83 24 7 0 5.27788295667619 2.45927840512246 5.44878216809593
84 24 6 0 5.51788295667619 1.52927840512246 5.44878216809593
85 25 6 0 9.76594721825793 13.4104412018228 14.2122930893674
86 25 7 0 10.7259472182579 13.4104412018228 14.2122930893674
87 25 6 0 10.9659472182579 12.4804412018228 14.2122930893674
88 26 6 0 11.3110299599078 11.5678900146764 1.06354474788532
89 26 7 0 12.2710299599078 11.5678900146764 1.06354474788532
90 26 6 0 12.5110299599078 10.6378900146764 1.06354474788532
91 27 6 0 2.2931306766998 10.9726987433992 4.05029847635888
92 27 7 0 3.2531306766998 10.9726987433992 4.05029847635888
93 27 6 0 3.4931306766998 10.0426987433992 4.05029847635888
94 28 6 0 11.137843324542 1.46455736988224 12.2177543921862
95 28 7 0 12.097843324542 1.46455736988224 12.2177543921862
96 28 6 0 12.337843324542 0.534557369882241 12.2177543921862
97 29 6 0 0.866067663738504 2.05232531688176 0.830834949156269
98 29 7 0 1.8260676637385 2.05232531688176 0.830834949156269
99 29 6 0 2.0660676637385 1.12232531688176 0.830834949156269
100 30 6 0 9.31638959722593 11.830928402897 9.9250462569762
101 30 7 0 10.2763895972259 11.830928402897 9.9250462569762
102 30 6 0 10.5163895972259 10.900928402897 9.9250462569762
103 31 6 0 4.94874826443382 10.3632263121568 8.06720506749116
104 31 7 0 5.90874826443382 10.3632263121568 8.06720506749116
105 31 6 0 6.14874826443382 9.43322631215677 8.06720506749116
106 32 6 0 11.8203442292009 14.6654853182286 11.5271907288115
107 32 7 0 12.7803442292009 14.6654853182286 11.5271907288115
108 32 6 0 13.0203442292009 13.7354853182286 11.5271907288115
109 33 6 0 2.40684188364074 3.77392157254741 8.41619509854354
110 33 7 0 3.36684188364074 3.77392157254741 8.41619509854354
111 33 6 0 3.60684188364074 2.84392157254741 8.41619509854354
112 34 6 0 10.2707140396535 3.76964655047283 11.2430434499402
113 34 7 0 11.2307140396535 3.76964655047283 11.2430434499402
114 34 6 0 11.4707140396535 2.83964655047283 11.2430434499402
115 35 6 0 0.0709639994613827 2.48089818324894 0.790656945900992
116 35 7 0 1.03096399946138 2.48089818324894 0.790656945900992
117 35 6 0 1.27096399946138 1.55089818324894 0.790656945900992
118 36 6 0 0.667589068617672 12.5954534978978 9.54310918226838
119 36 7 0 1.62758906861767 12.5954534978978 9.54310918226838
120 36 6 0 1.86758906861767 11.6654534978978 9.54310918226838
121 37 6 0 9.68818708017468 10.2707799830846 0.700211548246443
122 37 7 0 10.6481870801747 10.2707799830846 0.700211548246443
123 37 6 0 10.8881870801747 9.34077998308465 0.700211548246443
124 38 6 0 8.21844635691494 4.87436124048196 1.20137537363917
125 38 7 0 9.17844635691494 4.87436124048196 1.20137537363917
126 38 6 0 9.41844635691494 3.94436124048196 1.20137537363917
127 39 6 0 10.8611180812307 13.399464334771 13.426778720459
128 39 7 0 11.8211180812307 13.399464334771 13.426778720459
129 39 6 0 12.0611180812307 12.469464334771 13.426778720459
130 40 6 0 0.249064151868224 10.7493317073118 3.77308976138011
131 40 7 0 1.20906415186822 10.7493317073118 3.77308976138011
132 40 6 0 1.44906415186822 9.81933170731179 3.77308976138011
133 41 6 0 6.68014346432872 13.5944351243693 12.4760747223627
134 41 7 0 7.64014346432872 13.5944351243693 12.4760747223627
135 41 6 0 7.88014346432872 12.6644351243693 12.4760747223627
136 42 6 0 9.15054830300622 8.39747385046445 11.5040231938474
137 42 7 0 10.1105483030062 8.39747385046445 11.5040231938474
138 42 6 0 10.3505483030062 7.46747385046445 11.5040231938474
139 43 6 0 13.8833716911916 6.64875260362402 12.3971112223808
140 43 7 0 14.8433716911916 6.64875260362402 12.3971112223808
141 43 6 0 15.0833716911916 5.71875260362402 12.3971112223808
142 44 6 0 8.97921861891635 8.0442740399763 2.42794380756095
143 44 7 0 9.93921861891635 8.0442740399763 2.42794380756095
144 44 6 0 10.1792186189163 7.1142740399763 2.42794380756095
145 45 6 0 0.67089728705585 7.24292789394036 4.48739300016314
146 45 7 0 1.63089728705585 7.24292789394036 4.48739300016314
147 45 6 0 1.87089728705585 6.31292789394036 4.48739300016314
148 46 6 0 5.28012855604291 14.4538624425791 3.15393629134633
149 46 7 0 6.24012855604291 14.4538624425791 3.15393629134633
150 46 6 0 6.48012855604291 13.5238624425791 3.15393629134633
151 47 6 0 5.25924676607363 13.4498096005432 1.10721894074231
152 47 7 0 6.21924676607363 13.4498096005432 1.10721894074231
153 47 6 0 6.45924676607363 12.5198096005432 1.10721894074231
154 48 6 0 5.67639027882367 2.04343914095312 0.171175739960745
155 48 7 0 6.63639027882367 2.04343914095312 0.171175739960745
156 48 6 0 6.87639027882367 1.11343914095312 0.171175739960745
157 49 6 0 1.1699701628834 8.95174294518307 12.547214103397
158 49 7 0 2.1299701628834 8.95174294518307 12.547214103397
159 49 6 0 2.3699701628834 8.02174294518307 12.547214103397
160 50 6 0 7.20822962393984 8.31935072707944 0.273638069629669
161 50 7 0 8.16822962393984 8.31935072707944 0.273638069629669
162 50 6 0 8.40822962393984 7.38935072707944 0.273638069629669
163 51 6 0 9.94594031173736 0.398267922401428 2.48369412263855
164 51 7 0 10.9059403117374 0.398267922401428 2.48369412263855
165 51 6 0 11.1459403117374 -0.531732077598572 2.48369412263855
166 52 6 0 14.0744613802247 2.77520821237937 9.0193332103081
167 52 7 0 15.0344613802247 2.77520821237937 9.0193332103081
168 52 6 0 15.2744613802247 1.84520821237937 9.0193332103081
169 53 6 0 3.38513629205525 5.80340987228788 8.79489366430789
170 53 7 0 4.34513629205525 5.80340987228788 8.79489366430789
171 53 6 0 4.58513629205525 4.87340987228788 8.79489366430789
172 54 6 0 8.18152073465288 10.3335774845351 9.64199781417847
173 54 7 0 9.14152073465288 10.3335774845351 9.64199781417847
174 54 6 0 9.38152073465288 9.40357748453505 9.64199781417847
175 55 6 0 8.40060138070956 3.55059884529561 14.8319909675047
176 55 7 0 9.36060138070956 3.55059884529561 14.8319909675047
177 55 6 0 9.60060138070956 2.62059884529561 14.8319909675047
178 56 6 0 -0.0434277062583714 10.0164255888108 7.58900614106096
179 56 7 0 0.916572293741629 10.0164255888108 7.58900614106096
180 56 6 0 1.15657229374163 9.08642558881082 7.58900614106096
181 57 6 0 4.87939427766949 14.0009017339349 5.25453824666329
182 57 7 0 5.83939427766949 14.0009017339349 5.25453824666329
183 57 6 0 6.07939427766949 13.0709017339349 5.25453824666329
184 58 6 0 11.9749197566137 3.11110546969809 9.77066829102114
185 58 7 0 12.9349197566137 3.11110546969809 9.77066829102114
186 58 6 0 13.1749197566137 2.18110546969809 9.77066829102114
187 59 6 0 10.2001419563033 6.26043975044973 0.56309929699637
188 59 7 0 11.1601419563033 6.26043975044973 0.56309929699637
189 59 6 0 11.4001419563033 5.33043975044973 0.56309929699637
190 60 6 0 8.58128112318925 13.2910987983365 8.30117480596527
191 60 7 0 9.54128112318926 13.2910987983365 8.30117480596527
192 60 6 0 9.78128112318926 12.3610987983365 8.30117480596527
193 61 6 0 3.80173823257908 5.58980837854557 0.512887603836134
194 61 7 0 4.76173823257908 5.58980837854557 0.512887603836134
195 61 6 0 5.00173823257908 4.65980837854557 0.512887603836134
196 62 6 0 -0.529356458717957 3.83901718928479 7.47987902839668
197 62 7 0 0.430643541282043 3.83901718928479 7.47987902839668
198 62 6 0 0.670643541282043 2.90901718928479 7.47987902839668
199 63 6 0 11.8432682314608 11.2995709226839 7.31893648509867
200 63 7 0 12.8032682314608 11.2995709226839 7.31893648509867
201 63 6 0 13.0432682314608 10.3695709226839 7.31893648509867
202 64 6 0 9.98618752157316 10.4590092359018 11.1381214438006
203 64 7 0 10.9461875215732 10.4590092359018 11.1381214438006
204 64 6 0 11.1861875215732 9.52900923590176 11.1381214438006
205 65 6 0 2.09471936730668 13.0291203366965 12.2346951893996
206 65 7 0 3.05471936730668 13.0291203366965 12.2346951893996
207 65 6 0 3.29471936730668 12.0991203366965 12.2346951893996
208 66 6 0 8.11831196813844 6.5716181676276 1.80521338479593
209 66 7 0 9.07831196813844 6.5716181676276 1.80521338479593
210 66 6 0 9.31831196813844 5.6416181676276 1.80521338479593
211 67 6 0 8.79388989225961 10.513805899946 10.3360419056844
212 67 7 0 9.75388989225961 10.513805899946 10.3360419056844
213 67 6 0 9.99388989225961 9.58380589994602 10.3360419056844
214 68 6 0 5.38106481355615 9.3417708789371 4.71337219350971
215 68 7 0 6.34106481355615 9.3417708789371 4.71337219350971
216 68 6 0 6.58106481355615 8.4117708789371 4.71337219350971
217 69 6 0 4.34209837272763 2.3416399098374 11.327518519247
218 69 7 0 5.30209837272763 2.3416399098374 11.327518519247
219 69 6 0 5.54209837272763 1.41163990983739 11.327518519247
220 70 6 0 5.92907417725772 10.0228639207222 5.97113271709532
221 70 7 0 6.88907417725772 10.0228639207222 5.97113271709532
222 70 6 0 7.12907417725772 9.09286392072216 5.97113271709532
223 71 6 0 2.56131378279068 14.0738667807914 2.70058784983121
224 71 7 0 3.52131378279068 14.0738667807914 2.70058784983121
225 71 6 0 3.76131378279068 13.1438667807914 2.70058784983121
226 72 6 0 13.889573346097 3.33678715088405 7.33113429159857
227 72 7 0 14.849573346097 3.33678715088405 7.33113429159857
228 72 6 0 15.089573346097 2.40678715088405 7.33113429159857
229 73 6 0 3.1610322037898 4.10826774471439 0.426207807613537
230 73 7 0 4.1210322037898 4.10826774471439 0.426207807613537
231 73 6 0 4.3610322037898 3.17826774471439 0.426207807613537
232 74 6 0 8.86464182680473 13.567991959108 2.33065951033495
233 74 7 0 9.82464182680473 13.567991959108 2.33065951033495
234 74 6 0 10.0646418268047 12.637991959108 2.33065951033495
235 75 6 0 1.95354006995447 9.64447577874176 0.0988271925598383
236 75 7 0 2.91354006995447 9.64447577874176 0.0988271925598383
237 75 6 0 3.15354006995447 8.71447577874176 0.0988271925598383
238 76 6 0 11.5589892170113 5.44688221224584 11.620479428675
239 76 7 0 12.5189892170113 5.44688221224584 11.620479428675
240 76 6 0 12.7589892170113 4.51688221224584 11.620479428675
241 77 6 0 9.20523483582772 10.6410427290853 1.80759509210475
242 77 7 0 10.1652348358277 10.6410427290853 1.80759509210475
243 77 6 0 10.4052348358277 9.71104272908531 1.80759509210475
244 78 6 0 12.989197815042 12.6699192546681 10.9910411259625
245 78 7 0 13.949197815042 12.6699192546681 10.9910411259625
246 78 6 0 14.189197815042 11.7399192546681 10.9910411259625
247 79 6 0 6.78468710437417 3.45091991516761 13.5511518653948
248 79 7 0 7.74468710437417 3.45091991516761 13.5511518653948
249 79 6 0 7.98468710437417 2.52091991516761 13.5511518653948
250 80 6 0 10.2667526195012 5.5286873590108 1.7283082252834
251 80 7 0 11.2267526195012 5.5286873590108 1.7283082252834
252 80 6 0 11.4667526195012 4.5986873590108 1.7283082252834
253 81 6 0 6.46825240270235 8.35578269016929 11.632393647451
254 81 7 0 7.42825240270235 8.35578269016929 11.632393647451
255 81 6 0 7.66825240270235 7.42578269016929 11.632393647451
256 82 6 0 1.19086957231164 14.4485852068197 3.84533585049212
257 82 7 0 2.15086957231164 14.4485852068197 3.84533585049212
258 82 6 0 2.39086957231164 13.5185852068197 3.84533585049212
259 83 6 0 6.55829191018827 9.56702316570096 14.5530342590064
260 83 7 0 7.51829191018827 9.56702316570096 14.5530342590064
261 83 6 0 7.75829191018827 8.63702316570096 14.5530342590064
262 84 6 0 5.38181035590358 14.2093311533704 7.28350311052054
263 84 7 0 6.34181035590358 14.2093311533704 7.28350311052054
264 84 6 0 6.58181035590358 13.2793311533704 7.28350311052054
265 85 6 0 -0.222982838312164 2.08621961687692 10.9713916678447
266 85 7 0 0.737017161687836 2.08621961687692 10.9713916678447
267 85 6 0 0.977017161687836 1.15621961687691 10.9713916678447
268 86 6 0 12.1400720339455 9.46071891737171 6.82773023145273
269 86 7 0 13.1000720339455 9.46071891737171 6.82773023145273
270 86 6 0 13.3400720339455 8.53071891737171 6.82773023145273
271 87 6 0 10.266397076631 6.36938532506116 2.47016369481571
272 87 7 0 11.226397076631 6.36938532506116 2.47016369481571
273 87 6 0 11.466397076631 5.43938532506116 2.47016369481571
274 88 6 0 3.9210253259819 2.35412176157348 10.2575412159786
275 88 7 0 4.8810253259819 2.35412176157348 10.2575412159786
276 88 6 0 5.1210253259819 1.42412176157348 10.2575412159786
277 89 6 0 10.9997229678277 14.2126864361949 7.30104717775248
278 89 7 0 11.9597229678277 14.2126864361949 7.30104717775248
279 89 6 0 12.1997229678277 13.2826864361949 7.30104717775248
280 90 6 0 1.90818760355003 3.7015887970943 11.2973223952577
281 90 7 0 2.86818760355003 3.7015887970943 11.2973223952577
282 90 6 0 3.10818760355003 2.7715887970943 11.2973223952577
283 91 6 0 11.9776747100707 0.407876967629418 6.90245388541371
284 91 7 0 12.9376747100707 0.407876967629418 6.90245388541371
285 91 6 0 13.1776747100707 -0.522123032370582 6.90245388541371
286 92 6 0 10.6329517350253 12.3036670467723 11.610443451209
287 92 7 0 11.5929517350253 12.3036670467723 11.610443451209
288 92 6 0 11.8329517350253 11.3736670467723 11.610443451209
289 93 6 0 2.71756854068488 13.6742781234812 6.01558843511157
290 93 7 0 3.67756854068488 13.6742781234812 6.01558843511157
291 93 6 0 3.91756854068488 12.7442781234812 6.01558843511157
292 94 6 0 4.1380297396984 12.4420865605958 3.24172539752908
293 94 7 0 5.0980297396984 12.4420865605958 3.24172539752908
294 94 6 0 5.3380297396984 11.5120865605958 3.24172539752908
295 95 6 0 -0.624511256609112 14.3576984670386 6.12891222001053
296 95 7 0 0.335488743390888 14.3576984670386 6.12891222001053
297 95 6 0 0.575488743390888 13.4276984670386 6.12891222001053
298 96 6 0 11.8684428515565 8.35247975931503 14.8103031527717
299 96 7 0 12.8284428515565 8.35247975931503 14.8103031527717
300 96 6 0 13.0684428515565 7.42247975931503 14.8103031527717
301 97 6 0 6.41414364494383 14.4283505346999 2.01772952335887
302 97 7 0 7.37414364494383 14.4283505346999 2.01772952335887
303 97 6 0 7.61414364494383 13.4983505346999 2.01772952335887
304 98 6 0 2.26219798598439 14.2675198758394 8.34051934769377
305 98 7 0 3.22219798598439 14.2675198758394 8.34051934769377
306 98 6 0 3.46219798598439 13.3375198758394 8.34051934769377
307 99 6 0 11.4552032800578 4.12465272745118 4.91242529824376
308 99 7 0 12.4152032800578 4.12465272745118 4.91242529824376
309 99 6 0 12.6552032800578 3.19465272745118 4.91242529824376
310 100 6 0 12.5648818553612 10.7205779272504 12.0893062453251
311 100 7 0 13.5248818553612 10.7205779272504 12.0893062453251
312 100 6 0 13.7648818553612 9.79057792725042 12.0893062453251
313 101 6 0 13.9106065935642 14.0030746724829 3.73111068620346
314 101 7 0 14.8706065935642 14.0030746724829 3.73111068620346
315 101 6 0 15.1106065935642 13.0730746724829 3.73111068620346
316 102 6 0 5.74061941981316 13.3561469769944 5.74631005525589
317 102 7 0 6.70061941981316 13.3561469769944 5.74631005525589
318 102 6 0 6.94061941981316 12.4261469769944 5.74631005525589
319 103 6 0 12.2484787988663 8.08911306591705 1.72312972135842
320 103 7 0 13.2084787988663 8.08911306591705 1.72312972135842
321 103 6 0 13.4484787988663 7.15911306591704 1.72312972135842
322 104 6 0 8.35985376776196 4.14314723614603 4.4118764216546
323 104 7 0 9.31985376776196 4.14314723614603 4.4118764216546
324 104 6 0 9.55985376776196 3.21314723614603 4.4118764216546
325 105 6 0 3.04425843103789 9.48574623599649 10.2339126274455
326 105 7 0 4.00425843103789 9.48574623599649 10.2339126274455
327 105 6 0 4.24425843103789 8.55574623599649 10.2339126274455
328 106 6 0 12.0155836867355 9.67525942175649 11.7797238193452
329 106 7 0 12.9755836867355 9.67525942175649 11.7797238193452
330 106 6 0 13.2155836867355 8.74525942175649 11.7797238193452
331 107 6 0 3.08372517392971 0.69687551044859 9.01496763923205
332 107 7 0 4.04372517392971 0.69687551044859 9.01496763923205
333 107 6 0 4.28372517392971 -0.23312448955141 9.01496763923205
334 108 6 0 9.32745991202071 8.47946010570973 0.960328032961115
335 108 7 0 10.2874599120207 8.47946010570973 0.960328032961115
336 108 6 0 10.5274599120207 7.54946010570973 0.960328032961115
337 109 6 0 11.156197202364 11.143387990715 11.0465095750988
338 109 7 0 12.116197202364 11.143387990715 11.0465095750988
339 109 6 0 12.356197202364 10.213387990715 11.0465095750988
340 110 6 0 0.0810413241572678 10.0418825009279 13.569909929065
341 110 7 0 1.04104132415727 10.0418825009279 13.569909929065
342 110 6 0 1.28104132415727 9.1118825009279 13.569909929065
343 111 6 0 10.2877338188421 12.6315010494459 2.85025736899115
344 111 7 0 11.2477338188421 12.6315010494459 2.85025736899115
345 111 6 0 11.4877338188421 11.7015010494459 2.85025736899115
346 112 6 0 1.14820477014408 10.8058706302568 0.345026557333767
347 112 7 0 2.10820477014408 10.8058706302568 0.345026557333767
348 112 6 0 2.34820477014408 9.87587063025683 0.345026557333767
349 113 6 0 -0.142793987905607 13.4805627997871 7.68673240905628
350 113 7 0 0.817206012094393 13.4805627997871 7.68673240905628
351 113 6 0 1.05720601209439 12.5505627997871 7.68673240905628
352 114 6 0 8.3214224867709 4.41923017072491 11.5759318170603
353 114 7 0 9.2814224867709 4.41923017072491 11.5759318170603
354 114 6 0 9.5214224867709 3.48923017072491 11.5759318170603
355 115 6 0 8.3940548104886 11.2502888838667 10.0734148279298
356 115 7 0 9.3540548104886 11.2502888838667 10.0734148279298
357 115 6 0 9.5940548104886 10.3202888838667 10.0734148279298
358 116 6 0 3.54539297914133 11.7148544981051 12.1178917656653
359 116 7 0 4.50539297914132 11.7148544981051 12.1178917656653
360 116 6 0 4.74539297914133 10.7848544981051 12.1178917656653
361 117 6 0 7.63484619950876 9.81747706228867 0.486381211085245
362 117 7 0 8.59484619950876 9.81747706228867 0.486381211085245
363 117 6 0 8.83484619950876 8.88747706228867 0.486381211085245
364 118 6 0 6.13029443702661 4.88656055223197 1.65332907694392
365 118 7 0 7.09029443702661 4.88656055223197 1.65332907694392
366 118 6 0 7.33029443702661 3.95656055223197 1.65332907694392
367 119 6 0 -0.253312622224912 0.745455414699391 12.2164875338785
368 119 7 0 0.706687377775088 0.745455414699391 12.2164875338785
369 119 6 0 0.946687377775088 -0.18454458530061 12.2164875338785
370 120 6 0 9.75098335926421 7.08459196187556 0.619619503850117
371 120 7 0 10.7109833592642 7.08459196187556 0.619619503850117
372 120 6 0 10.9509833592642 6.15459196187556 0.619619503850117
373 121 6 0 0.669553744811565 9.41383704002015 0.444636630127206
374 121 7 0 1.62955374481156 9.41383704002015 0.444636630127206
375 121 6 0 1.86955374481156 8.48383704002015 0.444636630127206
376 122 6 0 11.2605397849996 8.59990604262799 3.58476839843206
377 122 7 0 12.2205397849996 8.59990604262799 3.58476839843206
378 122 6 0 12.4605397849996 7.66990604262799 3.58476839843206
379 123 6 0 4.7234491507709 2.36652558477595 10.0887345336378
380 123 7 0 5.6834491507709 2.36652558477595 10.0887345336378
381 123 6 0 5.9234491507709 1.43652558477595 10.0887345336378
382 124 6 0 2.16438773830421 10.6789327661414 2.27426211233251
383 124 7 0 3.12438773830421 10.6789327661414 2.27426211233251
384 124 6 0 3.36438773830421 9.74893276614137 2.27426211233251
385 125 6 0 7.87352681203745 9.55235658836551 10.4224368394352
386 125 7 0 8.83352681203745 9.55235658836551 10.4224368394352
387 125 6 0 9.07352681203745 8.62235658836551 10.4224368394352
388 126 6 0 8.27803251726553 0.758270429624245 4.60170648875646
389 126 7 0 9.23803251726553 0.758270429624245 4.60170648875646
390 126 6 0 9.47803251726553 -0.171729570375755 4.60170648875646
391 127 6 0 4.4663956823945 13.131171565447 3.52976166992448
392 127 7 0 5.4263956823945 13.131171565447 3.52976166992448
393 127 6 0 5.6663956823945 12.201171565447 3.52976166992448
394 128 6 0 6.41128998759203 14.7605853054579 7.82748709316365
395 128 7 0 7.37128998759203 14.7605853054579 7.82748709316365
396 128 6 0 7.61128998759203 13.8305853054579 7.82748709316365
397 129 6 0 9.96024136824533 13.9692857399955 2.89785049622878
398 129 7 0 10.9202413682453 13.9692857399955 2.89785049622878
399 129 6 0 11.1602413682453 13.0392857399955 2.89785049622878
400 130 6 0 7.91578967750073 2.49527560937218 11.6919378074817
401 130 7 0 8.87578967750073 2.49527560937218 11.6919378074817
402 130 6 0 9.11578967750073 1.56527560937218 11.6919378074817
403 131 6 0 2.97305050000548 12.4535183030553 13.5083541716449
404 131 7 0 3.93305050000548 12.4535183030553 13.5083541716449
405 131 6 0 4.17305050000548 11.5235183030553 13.5083541716449
406 132 6 0 11.350519910194 14.8625637164246 0.708541892236099
407 132 7 0 12.310519910194 14.8625637164246 0.708541892236099
408 132 6 0 12.550519910194 13.9325637164246 0.708541892236099
409 133 6 0 7.5280681326706 3.33264784579165 12.1255971724167
410 133 7 0 8.4880681326706 3.33264784579165 12.1255971724167
411 133 6 0 8.7280681326706 2.40264784579165 12.1255971724167
412 134 6 0 7.31600296494551 6.02909590857103 12.4265604105312
413 134 7 0 8.27600296494551 6.02909590857103 12.4265604105312
414 134 6 0 8.51600296494551 5.09909590857103 12.4265604105312
415 135 6 0 11.7509836731199 4.54501495737582 14.3017823214177
416 135 7 0 12.7109836731199 4.54501495737582 14.3017823214177
417 135 6 0 12.9509836731199 3.61501495737582 14.3017823214177
418 136 6 0 5.54022010459565 3.75735283753835 2.16074598021805
419 136 7 0 6.50022010459565 3.75735283753835 2.16074598021805
420 136 6 0 6.74022010459565 2.82735283753835 2.16074598021805
421 137 6 0 2.93771599696018 0.700327499480918 13.800524531398
422 137 7 0 3.89771599696018 0.700327499480918 13.800524531398
423 137 6 0 4.13771599696018 -0.229672500519082 13.800524531398
424 138 6 0 13.7783029249124 4.46399585850537 14.3862137768883
425 138 7 0 14.7383029249124 4.46399585850537 14.3862137768883
426 138 6 0 14.9783029249124 3.53399585850537 14.3862137768883
427 139 6 0 8.51256236943416 9.35575894121081 0.431914675282314
428 139 7 0 9.47256236943416 9.35575894121081 0.431914675282314
429 139 6 0 9.71256236943416 8.42575894121081 0.431914675282314
430 140 6 0 1.87774956735782 8.96496091311798 10.8481161890086
431 140 7 0 2.83774956735782 8.96496091311798 10.8481161890086
432 140 6 0 3.07774956735782 8.03496091311798 10.8481161890086
433 141 6 0 10.582431615768 4.32233965181746 9.28406215505674
434 141 7 0 11.542431615768 4.32233965181746 9.28406215505674
435 141 6 0 11.782431615768 3.39233965181746 9.28406215505674
436 142 6 0 9.54517899474129 9.03614874504507 1.32979218265973
437 142 7 0 10.5051789947413 9.03614874504507 1.32979218265973
438 142 6 0 10.7451789947413 8.10614874504507 1.32979218265973
439 143 6 0 3.50545273904689 6.89000533236191 1.59041691804305
440 143 7 0 4.46545273904689 6.89000533236191 1.59041691804305
441 143 6 0 4.70545273904689 5.96000533236191 1.59041691804305
442 144 6 0 -0.0563595439586788 14.1980917406641 12.2007168293931
443 144 7 0 0.903640456041321 14.1980917406641 12.2007168293931
444 144 6 0 1.14364045604132 13.2680917406641 12.2007168293931
445 145 6 0 1.59222998234443 1.46717036882415 9.08973693964072
446 145 7 0 2.55222998234443 1.46717036882415 9.08973693964072
447 145 6 0 2.79222998234443 0.537170368824154 9.08973693964072
448 146 6 0 3.61186099980958 14.4861583590414 6.07829087530263
449 146 7 0 4.57186099980958 14.4861583590414 6.07829087530263
450 146 6 0 4.81186099980958 13.5561583590414 6.07829087530263
451 147 6 0 5.8381112424843 6.85663473716937 1.71723635285161
452 147 7 0 6.7981112424843 6.85663473716937 1.71723635285161
453 147 6 0 7.0381112424843 5.92663473716937 1.71723635285161
454 148 6 0 4.65520137615502 12.4590182809066 14.1413043520879
455 148 7 0 5.61520137615502 12.4590182809066 14.1413043520879
456 148 6 0 5.85520137615502 11.5290182809066 14.1413043520879
457 149 6 0 13.820280494839 9.33372815296985 0.493526465725154
458 149 7 0 14.780280494839 9.33372815296985 0.493526465725154
459 149 6 0 15.020280494839 8.40372815296985 0.493526465725154
460 150 6 0 10.561043010531 2.42609213845804 5.52353392937221
461 150 7 0 11.521043010531 2.42609213845804 5.52353392937221
462 150 6 0 11.761043010531 1.49609213845804 5.52353392937221
463 151 6 0 9.2287516307272 6.09566355863586 2.80886094085872
464 151 7 0 10.1887516307272 6.09566355863586 2.80886094085872
465 151 6 0 10.4287516307272 5.16566355863586 2.80886094085872
466 152 6 0 -0.0010970277059823 10.7906329484563 8.17839986993931
467 152 7 0 0.958902972294018 10.7906329484563 8.17839986993931
468 152 6 0 1.19890297229402 9.86063294845633 8.17839986993931
469 153 6 0 -0.431812916211784 2.88211094605736 0.0182851532008499
470 153 7 0 0.528187083788216 2.88211094605736 0.0182851532008499
471 153 6 0 0.768187083788216 1.95211094605736 0.0182851532008499
472 154 6 0 8.46926059152 14.8545827301592 13.094980395399
473 154 7 0 9.42926059152 14.8545827301592 13.094980395399
474 154 6 0 9.66926059152 13.9245827301592 13.094980395399