LAMMPS (29 Sep 2021 - Update 1)
# Test LAMMPS input file for single DeFDe

# Initialize simulation

clear

units real
atom_style full
boundary p p p
dielectric 1
special_bonds dreiding

bond_style harmonic
angle_style harmonic
dihedral_style harmonic
improper_style umbrella
pair_style hybrid/overlay hbond/dreiding/lj 4 9.0 11.0 90 lj/cut 8.50000

# Read data file
read_data frag5.dat
Reading data file ...
  triclinic box = (0.0000000 0.0000000 0.0000000) to (15.000000 15.000000 15.000000) with tilt (0.0000000 0.0000000 0.0000000)
  2 by 4 by 4 MPI processor grid
  reading atoms ...
  1515 atoms
  scanning bonds ...
  4 = max bonds/atom
  scanning angles ...
  6 = max angles/atom
  scanning dihedrals ...
  9 = max dihedrals/atom
  scanning impropers ...
  1 = max impropers/atom
  reading bonds ...
  1014 bonds
  reading angles ...
  524 angles
  reading dihedrals ...
  25 dihedrals
  reading impropers ...
  2 impropers
Finding 1-2 1-3 1-4 neighbors ...
  special bond factors lj:    0        0        1       
  special bond factors coul:  0        0        1       
     4 = max # of 1-2 neighbors
     5 = max # of 1-3 neighbors
     9 = max # of special neighbors
  special bonds CPU = 0.002 seconds
  read_data CPU = 0.017 seconds

# Dreiding potential information

bond_coeff 1 350 1.375
bond_coeff 2 350 1.09
bond_coeff 3 700 1.275
bond_coeff 4 700 1.22
bond_coeff 5 350 1.43
bond_coeff 6 350 1.53
bond_coeff 7 350 0.935
bond_coeff 8 350 0.98

angle_coeff 1 50 109.471
angle_coeff 2 50 120
angle_coeff 3 50 120
angle_coeff 4 50 104.51

dihedral_coeff 1 0.0833333333333333 -1 6
dihedral_coeff 2 5.625 -1 2
dihedral_coeff 3 0.111111111111111 -1 3

improper_coeff 1 40 0

pair_coeff 1 1 lj/cut 0.0951 3.8983
pair_coeff 1 2 lj/cut 0.0857947550844456 3.77835472527395
pair_coeff 1 3 lj/cut 0.0951 3.8983
pair_coeff 1 4 lj/cut 0.0953995283007206 3.64309650983885
pair_coeff 1 5 lj/cut 0.0380199947396104 3.52917391183829
pair_coeff 1 6 lj/cut 0.00308382878902186 3.52806914614779
pair_coeff 1 7 lj/cut 0.0953995283007206 3.64309650983885
pair_coeff 2 2 lj/cut 0.0774 3.6621
pair_coeff 2 3 lj/cut 0.0857947550844456 3.77835472527395
pair_coeff 2 4 lj/cut 0.0860649754545948 3.53100349192691
pair_coeff 2 5 lj/cut 0.0342998542270955 3.42058613398347
pair_coeff 2 6 lj/cut 0.00278208554864871 3.41951536039831
pair_coeff 2 7 lj/cut 0.0860649754545948 3.53100349192691
pair_coeff 3 3 lj/cut 0.0951 3.8983
pair_coeff 3 4 lj/cut 0.0953995283007206 3.64309650983885
pair_coeff 3 5 lj/cut 0.0380199947396104 3.52917391183829
pair_coeff 3 6 lj/cut 0.00308382878902186 3.52806914614779
pair_coeff 3 7 lj/cut 0.0953995283007206 3.64309650983885
pair_coeff 4 4 lj/cut 0.0957 3.4046
pair_coeff 4 5 lj/cut 0.0381397430510485 3.29813538230316
pair_coeff 4 6 lj/cut 0.0030935416596516 3.29710294046152
pair_coeff 4 7 lj/cut 0.0957 3.4046
pair_coeff 5 5 lj/cut 0.0152 3.195
pair_coeff 5 6 lj/cut 0.0012328828005938 3.19399984345648
pair_coeff 5 7 lj/cut 0.0381397430510485 3.29813538230316
pair_coeff 6 6 lj/cut 1e-04 3.193
pair_coeff 6 7 lj/cut 0.0030935416596516 3.29710294046152
pair_coeff 7 7 lj/cut 0.0957 3.4046
pair_coeff 2 2 hbond/dreiding/lj 6 j 9.50 2.75 4 9.0 11.0 90
pair_coeff 2 4 hbond/dreiding/lj 6 i 9.50 2.75 4 9.0 11.0 90
pair_coeff 2 7 hbond/dreiding/lj 6 i 9.50 2.75 4 9.0 11.0 90
pair_coeff 2 7 hbond/dreiding/lj 6 j 9.50 2.75 4 9.0 11.0 90
pair_coeff 4 7 hbond/dreiding/lj 6 j 9.50 2.75 4 9.0 11.0 90
pair_coeff 7 7 hbond/dreiding/lj 6 j 9.50 2.75 4 9.0 11.0 90

neighbor 2 bin
neigh_modify every 2 one 10000

# Gemoetric relaxation
fix 1 all box/relax iso 1.0 vmax 0.001
minimize 1.0e-4 1.0e-6 10000 10000
WARNING: Using 'neigh_modify every 1 delay 0 check yes' setting during minimization (../min.cpp:188)
Neighbor list info ...
  update every 1 steps, delay 0 steps, check yes
  max neighbors/atom: 10000, page size: 100000
  master list distance cutoff = 13
  ghost atom cutoff = 13
  binsize = 6.5, bins = 3 3 3
  3 neighbor lists, perpetual/occasional/extra = 3 0 0
  (1) pair hbond/dreiding/lj, perpetual, skip from (3)
      attributes: full, newton on
      pair build: skip
      stencil: none
      bin: none
  (2) pair lj/cut, perpetual, half/full from (3)
      attributes: half, newton on
      pair build: halffull/newton
      stencil: none
      bin: none
  (3) neighbor class addition, perpetual
      attributes: full, newton on
      pair build: full/bin
      stencil: full/bin/3d
      bin: standard
Per MPI rank memory allocation (min/avg/max) = 14.41 | 14.77 | 15.34 Mbytes
Step Temp E_pair E_mol TotEng Press Volume 
       0            0 1.2713415e+16     274.2184 1.2713415e+16 1.0331718e+18         3375 
    5181            0   -1111.2946    37.283197   -1074.0114    132.23635     36976.26 
Loop time of 4.97421 on 32 procs for 5181 steps with 1515 atoms

100.0% CPU use with 32 MPI tasks x no OpenMP threads

Minimization stats:
  Stopping criterion = energy tolerance
  Energy initial, next-to-last, final = 
    1.27134147883874e+16  -1073.42864239931  -1073.52133212223
  Force two-norm initial, final = 1.9405494e+18 122.54115
  Force max component initial, final = 1.2059104e+18 95.592658
  Final line search alpha, max atom move = 1.7804763e-05 0.0017020046
  Iterations, force evaluations = 5181 5181

MPI task timing breakdown:
Section |  min time  |  avg time  |  max time  |%varavg| %total
---------------------------------------------------------------
Pair    | 0.84474    | 2.5386     | 4.1702     |  46.7 | 51.03
Bond    | 0.0042959  | 0.010949   | 0.021667   |   3.0 |  0.22
Neigh   | 0.09589    | 0.096573   | 0.097097   |   0.1 |  1.94
Comm    | 0.35174    | 1.9851     | 3.6839     |  52.9 | 39.91
Output  | 0          | 0          | 0          |   0.0 |  0.00
Modify  | 0          | 0          | 0          |   0.0 |  0.00
Other   |            | 0.343      |            |       |  6.90

Nlocal:        47.3438 ave          72 max          17 min
Histogram: 1 1 3 1 3 11 5 4 2 1
Nghost:        1974.22 ave        2036 max        1915 min
Histogram: 5 2 8 1 0 0 2 5 6 3
Neighs:        4949.31 ave        8895 max        1769 min
Histogram: 3 1 1 8 8 5 2 2 0 2

Total # of neighbors = 158378
Ave neighs/atom = 104.53993
Ave special neighs/atom = 2.0303630
Neighbor list builds = 89
Dangerous builds = 0

# MD simulation
velocity all create 300.0 12345 rot yes dist gaussian
timestep 1.0
fix 2 all nvt temp 300.0 300.0 1

# Compute interaction energy
group WAT molecule <> 2 501
1500 atoms in group WAT
group MOL molecule 1
15 atoms in group MOL

compute w WAT group/group MOL pair yes
fix 3 all ave/time 10 5 100 c_w file outa

# Outputs
thermo 100 # Output thermodynamic data every nth step
#dump mf1 all xyz 10000 mol_*.xyz

# Run
run 1000000
Neighbor list info ...
  update every 2 steps, delay 10 steps, check yes
  max neighbors/atom: 10000, page size: 100000
  master list distance cutoff = 13
  ghost atom cutoff = 13
  binsize = 6.5, bins = 6 6 6
  4 neighbor lists, perpetual/occasional/extra = 3 1 0
  (1) pair hbond/dreiding/lj, perpetual, skip from (4)
      attributes: full, newton on
      pair build: skip
      stencil: none
      bin: none
  (2) pair lj/cut, perpetual, half/full from (4)
      attributes: half, newton on
      pair build: halffull/newton
      stencil: none
      bin: none
  (3) compute group/group, occasional, copy from (2)
      attributes: half, newton on
      pair build: copy
      stencil: none
      bin: none
  (4) neighbor class addition, perpetual
      attributes: full, newton on
      pair build: full/bin
      stencil: full/bin/3d
      bin: standard
Per MPI rank memory allocation (min/avg/max) = 13.26 | 13.31 | 13.81 Mbytes
Step Temp E_pair E_mol TotEng Press Volume 
    5181          300   -1111.2946    37.283197    279.87255    1805.9891     36976.26 
    5200    288.92742   -1008.8434     283.4808    578.55136    1748.6352     36976.26 
    5300     300.5651   -1132.2604    214.82356    438.99733   -597.11108     36976.26 
    5400    298.10121   -1128.9632    212.53378    428.88537   -50.052181     36976.26 
    5500     296.9569   -1156.7848    171.66497    355.03071    49.537372     36976.26 
    5600    302.73604   -1103.1877    208.99712    472.04089      355.885     36976.26 
    5700    302.95694   -1146.4319    200.77162    421.56815     112.9687     36976.26 
    5800    303.50066   -1119.4612    191.67522    441.89625    453.56817     36976.26 
    5900    302.76889   -1162.6001    197.20996    400.98958    511.66715     36976.26 
    6000      303.893   -1116.4361    205.33599     460.3527    634.56719     36976.26 
    6100    295.40618   -1173.8387    183.34967    342.66322    513.16885     36976.26 
    6200    305.73091   -1103.2926     207.1899    483.64446    937.57358     36976.26 
    6300    302.11041    -1091.668    210.15261    481.89271     615.5482     36976.26 
    6400    290.04273   -1074.5908    221.67639    456.03288    937.22103     36976.26 
    6500    284.58552   -1093.3378    208.31794    399.29937    680.30262     36976.26 
    6600     292.9666   -1123.1868    201.44316    400.39893    359.20913     36976.26 
    6700    305.64296   -1120.9626    205.63179    464.01947     157.4367     36976.26 
    6800    285.19531   -1118.7523    201.23874    369.55755   -69.926909     36976.26 
    6900    310.76436   -1124.4204     209.9616    488.00408    491.42289     36976.26 
    7000    305.53165   -1097.8146    216.65671    497.69008   -47.152354     36976.26 
    7100    288.38184   -1156.6805    230.59402    375.36533   -192.49886     36976.26 
    7200    299.19101   -1095.5268    222.20552    476.91173    360.79047     36976.26 
    7300    295.27415   -1095.7558    223.99776    460.79835     758.2936     36976.26 
    7400    312.07423   -1126.1012    221.75376    504.02681    756.97078     36976.26 
    7500    298.05949   -1132.4111    215.46655      428.182    325.96436     36976.26 
    7600    297.09296   -1136.3699    217.37634    421.77103    775.33447     36976.26 
    7700    293.31261   -1141.5524    204.81918    386.97093    548.77278     36976.26 
    7800    303.12388   -1142.1962    236.86581    462.65147    359.38272     36976.26 
    7900     299.5039   -1112.6773    218.35877    457.32655    118.71547     36976.26 
    8000    303.46693     -1164.92    217.12365    421.73358     931.0456     36976.26 
    8100     298.5828   -1123.8946    238.70775    462.30127     140.9519     36976.26 
    8200    305.14061   -1137.7906    223.20741    462.49999    505.59631     36976.26 
    8300    301.73687   -1198.7303    235.68314    398.67519     946.7351     36976.26 
    8400    305.88598   -1230.1269    229.29078    379.61087    528.93957     36976.26 
    8500    295.02775   -1201.0734      242.433    372.80401    601.65228     36976.26 
    8600    302.93104   -1210.6417    233.32346    389.79336    636.58473     36976.26 
    8700    298.43616   -1224.4971    227.08267    349.41196    731.75004     36976.26 
    8800    300.54056   -1170.1043    235.53958    421.75876    697.63851     36976.26 
    8900    294.27533   -1179.9614    239.30284    387.39027    613.85466     36976.26 
    9000    307.46267   -1148.9425    245.71674    484.33677    445.32089     36976.26 
    9100    311.16759   -1154.0142    252.78081    503.04925    739.95745     36976.26 
    9200    309.69996   -1132.3151    242.87604     508.2203    554.16398     36976.26 
    9300    290.59617   -1099.7999    238.50382     450.1489    5.5292274     36976.26 
    9400    305.33352   -1106.0284    246.71943    518.64482    223.53741     36976.26 
    9500    302.55205   -1150.2431    246.67631    461.83442     172.5569     36976.26 
    9600    296.75124   -1127.8491    242.49407     453.8674   -3.1017676     36976.26 
    9700    303.93413   -1170.0457    255.40029    456.99301   -210.21485     36976.26 
    9800    292.88387   -1133.1853    261.33305    449.91697   -82.872337     36976.26 
    9900    309.84539   -1164.4542    252.14758    486.00899    221.78713     36976.26 
   10000    308.06063   -1161.7759     242.6682    471.15342    364.43333     36976.26 
   10100    300.37112   -1173.3005    265.89705    448.15533    446.86851     36976.26 
   10200    298.97971   -1146.6633     269.5479    472.16398    823.68122     36976.26 
   10300    296.94586   -1166.5534    263.33155    436.87886    642.12344     36976.26 
   10400    297.18236   -1135.9544    259.78379    464.99746    443.44443     36976.26 
   10500    291.19079   -1176.5827    253.65953    391.20525    460.04771     36976.26 
   10600    309.69187    -1142.663    250.14769    505.10752    862.19467     36976.26 
   10700    302.37509   -1140.8995    257.59389      481.297    761.80192     36976.26 
   10800    303.84549   -1122.4577    270.36769    519.14836    628.99144     36976.26 
   10900    302.96051   -1156.0927    254.79176    465.94363    215.17922     36976.26 
   11000    300.31728   -1164.1058    249.50825    440.71828    826.85029     36976.26 
   11100    291.92338   -1201.4284    260.59735    376.60352    464.84604     36976.26 
   11200    303.62021   -1196.5591    250.18907    423.85166    553.36268     36976.26 
   11300    292.81424   -1180.7148    270.86247    411.60261    380.51158     36976.26 
   11400    291.97236   -1133.4252    259.22613    443.45651    265.55353     36976.26 
   11500    295.97738   -1084.8326    265.89535    516.79282    346.70681     36976.26 
   11600    307.98884   -1111.1626     265.9734    544.74796    167.27131     36976.26 
   11700    288.48979    -1108.606    282.33645    475.66947    241.32562     36976.26 
   11800    290.84518   -1095.1506    261.50387    478.92198     276.8796     36976.26 
   11900    298.38998   -1135.0791    267.22104    478.75994    278.18442     36976.26 
   12000    297.92032   -1153.0352     271.8002    463.26341    377.62185     36976.26 
   12100    297.02245   -1131.1902    265.95729    475.21351    161.43421     36976.26 
   12200    298.37488   -1173.4301    264.51731    437.63705    142.65417     36976.26 
   12300    304.58027   -1131.9845    268.75525    511.32519    637.17343     36976.26 
   12400    308.75054   -1138.8918     268.7426    523.22545    212.63427     36976.26 
   12500    306.29069   -1104.7743    271.25549    548.75464    458.02556     36976.26 
   12600    299.75956   -1135.8911    262.76202    479.66974     349.8608     36976.26 
   12700    298.13834   -1155.2663     266.3083    456.52435    14.511077     36976.26 
   12800     291.7488    -1144.894    277.46059    449.21333   -185.28308     36976.26 
   12900    315.40021   -1126.0643    273.41693    570.73691    189.86556     36976.26 
   13000    301.77605   -1109.7663    284.59751    536.73033    421.09611     36976.26 
   13100    295.34587   -1141.0282    264.21009    456.06199   -447.43933     36976.26 
   13200    287.38694   -1148.4173    275.60643    424.15101   -151.46506     36976.26 
   13300    301.52349    -1140.159    268.79812    489.39842    77.630309     36976.26 
   13400    286.64737   -1154.6897    276.14322    415.07773   -63.077126     36976.26 
   13500    302.72713   -1151.5681    271.19565    485.81885    163.94153     36976.26 
   13600    305.01876   -1134.5562    284.21093    526.18808   -37.138656     36976.26 
   13700    304.59737   -1153.7581    281.39776     502.2713     346.1318     36976.26 
   13800    296.65541   -1130.8988    284.43954    492.33065    455.08665     36976.26 
   13900    294.79377   -1161.1272    283.87159    453.13286    262.00313     36976.26 
   14000    304.43359   -1169.7429     309.0382    513.18779    61.148084     36976.26 
   14100    303.74602   -1179.5627    255.16414    446.39098    86.859699     36976.26 
   14200    297.59635    -1172.323    296.27929    466.99266    374.56842     36976.26 
   14300    294.65959   -1162.5695    288.55282    455.76626    255.25394     36976.26 
   14400    313.79587   -1144.0795    294.69907    566.76347    613.90675     36976.26 
   14500    308.35697   -1153.6096    291.91347    529.90237    530.92586     36976.26 
   14600    295.63995    -1225.291    286.48602    395.40231    344.15778     36976.26 
   14700    293.47378   -1185.4983    296.24071    435.17384    -161.7142     36976.26 
   14800    297.70614   -1140.2989    296.87769    500.11065   -135.48222     36976.26 
   14900    294.56277   -1194.1027    304.24312    439.48647   -363.01456     36976.26 
   15000    298.74194    -1175.792    296.49572    468.91006    338.07175     36976.26 
   15100    299.90793   -1226.8309    289.28773    415.92524     380.2458     36976.26 
   15200    291.36845   -1174.0413    308.65091    449.53985    522.75465     36976.26 
   15300     296.4717   -1179.8877    316.37072    474.44387   -470.24458     36976.26 
   15400    302.70935   -1168.8867    294.34138    491.56578   -216.40193     36976.26 
   15500    307.59177   -1177.4107    283.31598    494.05044    489.61838     36976.26 
   15600    301.45345   -1160.8895     311.3693    510.92302    68.288582     36976.26 
   15700    313.56708   -1202.7073    313.22461     525.6287    722.63688     36976.26 
   15800    295.73999   -1168.2936    288.09261    454.45774    339.52145     36976.26 
   15900    298.04202   -1179.0842     299.7903    465.75374    394.55959     36976.26 
   16000    306.65448    -1182.999    315.75294    516.66921    526.00967     36976.26 
   16100    303.29364   -1185.8134    310.07015    493.00465    791.11269     36976.26 
   16200    303.15449   -1219.5691    309.54353    458.09438     150.0202     36976.26 
   16300    293.98136   -1250.8992    307.00127    382.82419    733.61403     36976.26 
   16400    308.58332   -1231.4001    308.45196    469.67186    847.71767     36976.26 
   16500    294.80501    -1230.338    293.36326    393.46449    540.23449     36976.26 
   16600    307.72045   -1219.6357    318.47304    487.56328   -124.97675     36976.26 
   16700    293.76953   -1210.2439    316.02675    431.54899    471.92978     36976.26 
   16800    312.09982     -1180.92    301.18262     528.7524    112.85894     36976.26 
   16900    300.99497   -1201.5368    329.31395    486.15127    -10.61092     36976.26 
   17000    304.35044   -1192.7876    302.76294     483.4925   -16.429952     36976.26 
   17100    301.86115   -1177.3978    313.67585     498.5612    148.99401     36976.26 
   17200    309.24677   -1232.1905    301.40377    464.82736   -47.940726     36976.26 
   17300    306.65043   -1230.7646     291.8935    445.02585    240.50257     36976.26 
   17400    304.27839   -1230.9151    322.41127    464.68827    752.13164     36976.26 
   17500    302.07383   -1194.5265    304.94562    473.66215   -199.93419     36976.26 
   17600    300.75178    -1178.718    334.77415    513.33283   -73.677246     36976.26 
   17700    304.22767   -1152.1644    314.58633    535.38508    332.88478     36976.26 
   17800    307.33818   -1164.2885    315.98205    538.69428    248.46988     36976.26 
   17900      302.501   -1233.9656    327.90545    459.11067    -350.4251     36976.26 
   18000    298.61326    -1170.839    314.15911     490.9458    62.645893     36976.26 
   18100    288.17526   -1212.2868     308.4682    396.70092    464.27896     36976.26 
   18200    305.53125   -1213.6932    320.83097    485.98393    266.51214     36976.26 
   18300    297.37653   -1174.4919    321.98425    489.53666    234.84171     36976.26 
   18400    296.58418   -1211.9865    327.58002    454.06204    34.670174     36976.26 
   18500     296.4235   -1218.5823     306.3992    425.56031     131.9179     36976.26 
   18600    300.80285   -1202.7694    323.20709    477.94483    88.370887     36976.26 
   18700    304.34251   -1221.6579    328.55924    480.38277    264.29829     36976.26 
   18800    299.09265   -1188.9272    323.17639    484.03826    384.35929     36976.26 
   18900    310.01102    -1191.021     331.9501    539.99219    556.66333     36976.26 
   19000    303.02237   -1172.1382    322.84445    518.22994    760.79569     36976.26 
   19100    291.56618   -1195.7585    331.93678    452.00081    920.60473     36976.26 
   19200    291.43073   -1244.6778    337.28339    407.81687    627.49932     36976.26 
   19300    310.90552   -1188.3366    310.08115    524.84455    1108.2856     36976.26 
   19400    304.97525    -1217.396    335.86298    494.80394    707.58975     36976.26 
   19500    307.43414   -1219.0683     339.1437    507.50917    283.32453     36976.26 
   19600    306.02572   -1182.0057    316.39273    515.46468     335.7226     36976.26 
   19700    310.50462   -1163.2446    310.85812    548.90424    611.59918     36976.26 
   19800    309.22583   -1209.9429    325.27855    510.85522    -42.47842     36976.26 
   19900    300.70875   -1190.5979    307.46642    473.95105    610.63484     36976.26 
   20000    297.58111   -1192.7431    333.55036    483.77486    240.87563     36976.26 
   20100    308.58118   -1185.0087    319.50874     527.1104    500.94733     36976.26 
   20200    303.98628   -1169.2411    326.94792    529.58067    609.20793     36976.26 
   20300    301.78108   -1201.1508    328.44346    489.21452    552.69801     36976.26 
   20400    303.56443   -1204.3457    335.45896    501.08325    150.56701     36976.26 
   20500    302.37697   -1205.7662    347.20257    506.04747    17.979395     36976.26 
   20600    306.52465   -1191.0531    337.94541    530.22165   -34.438783     36976.26 
   20700    295.89391   -1192.8692    335.92575    478.40991    453.99658     36976.26 
   20800    303.69903   -1208.8752    339.01688     500.7191    -14.21914     36976.26 
   20900    302.52283   -1193.4101    353.03664    524.89592    313.51493     36976.26 
   21000    301.25815   -1257.3446    317.95678    420.17407    547.94692     36976.26 
   21100    295.08756   -1202.0145    346.92265    476.62251    605.28832     36976.26 
   21200    295.70677   -1184.4024     347.4522    497.55862    919.94929     36976.26 
   21300    301.75002   -1177.9762    334.42526    518.23078    12.164367     36976.26 
   21400     301.2398   -1201.5633    341.46156    499.37735    -130.3464     36976.26 
   21500    293.64462   -1238.6351    331.21932    417.78664    137.76712     36976.26 
   21600    298.15656   -1232.6432    332.50302    445.42436   -210.23824     36976.26 
   21700     293.3561   -1229.0798    341.43615     436.2567    189.55701     36976.26 
   21800    311.50363   -1218.7454    356.74472    543.79853    195.34063     36976.26 
   21900    305.37538   -1211.0735    350.57166    517.64085    368.12785     36976.26 
   22000    294.70416   -1184.7489    346.75592    491.99115    268.18806     36976.26 
   22100    293.31251   -1242.4586    341.69005    422.93504    328.90987     36976.26 
   22200    292.51225    -1198.427    346.51768    468.18275    658.04752     36976.26 
   22300    307.73531   -1193.9303    352.11344    546.97608    703.87251     36976.26 
   22400    306.31945   -1196.7559    333.49866      519.146    356.62592     36976.26 
   22500    307.27987   -1237.8561    344.35878    493.24025    176.37583     36976.26 
   22600    297.40422     -1283.83      338.777    397.11628   -298.45007     36976.26 
   22700    307.42941   -1228.8731    340.88343    499.42278   -153.76954     36976.26 
   22800    306.12127   -1250.7459    343.75369    474.51671   -125.77774     36976.26 
   22900    295.26687   -1249.7395    318.12126    400.90535    146.09025     36976.26 
   23000    290.03775   -1232.1181    342.93135     419.7381    50.649202     36976.26 
   23100     303.9419   -1240.0422    361.44587    493.07712    -91.34937     36976.26 
   23200    294.58526    -1233.643    347.87025    443.67476   -152.23449     36976.26 
   23300    300.75465   -1222.8582    340.08791    474.51933    642.86633     36976.26 
   23400    295.59965   -1269.9703    346.47328    410.52838    192.79254     36976.26 
   23500    305.63139   -1243.9558    344.29755    479.63984    222.22748     36976.26 
   23600    294.76625    -1206.515    336.46456    460.21386    460.48322     36976.26 
   23700    300.97561   -1240.2163     330.2685    448.33904     916.5705     36976.26 
   23800    298.27761   -1246.1635    363.31654    463.26396    591.70416     36976.26 
   23900    300.46097   -1230.5802    374.72244    500.10654    758.45214     36976.26 
   24000    304.35992   -1207.9412    341.98795    507.60671    292.00993     36976.26 
   24100    302.06243   -1176.6632    378.83908    565.36741    332.88356     36976.26 
   24200     306.2137   -1214.3695    354.00624    521.56281    488.76186     36976.26 
   24300    294.81851   -1215.5849    356.94134    471.85653    363.94536     36976.26 
   24400    287.35426   -1251.3312    360.27726     405.7604    410.35051     36976.26 
   24500     290.8025   -1244.2001    365.36089     433.5369    550.27546     36976.26 
   24600    299.26789   -1227.5925    356.14091    479.12838    99.906614     36976.26 
   24700    306.25305   -1245.0384    342.11369    479.17884    361.39449     36976.26 
   24800    301.33958   -1263.9814    347.12381     443.0718    495.94421     36976.26 
   24900    296.97962   -1207.1891    348.73748    481.80152   -478.14317     36976.26 
   25000    304.20326   -1253.6154    338.07951    457.31713    249.51106     36976.26 
   25100    295.21676   -1185.5648    363.10706    509.83964   -467.86218     36976.26 
   25200     298.6743    -1190.733    366.78364    523.95177    132.40553     36976.26 
   25300    303.17007   -1251.1191    367.46133    484.53247    293.54012     36976.26 
   25400    303.15662   -1252.6004    351.11767    466.64684     722.5979     36976.26 
   25500    308.18652   -1221.0349    364.03086    533.82516    285.58051     36976.26 
   25600    290.07046   -1208.5078     368.7875    469.35211    18.711231     36976.26 
   25700    296.83947   -1250.2606    366.67659    456.03659    148.39424     36976.26 
   25800    305.94376   -1218.1211    371.85681    534.44349    549.06742     36976.26 
   25900    303.18224   -1239.7139    356.88806    485.41934    86.234308     36976.26 
   26000    284.15262   -1245.9211    366.34603    402.79049    211.91879     36976.26 
   26100    304.25032   -1261.2197    358.76136    470.60708    182.86389     36976.26 
   26200    294.69908   -1213.7375    352.61893    468.84263    109.04242     36976.26 
   26300    302.69714    -1206.731    343.72689    503.05183   -168.58636     36976.26 
   26400    300.13686   -1183.2505    376.33775    547.58882   -101.35084     36976.26 
   26500    298.19533   -1203.3796    377.82321    520.18317   -57.882178     36976.26 
   26600     319.2234   -1212.9791     386.5297    614.18871    48.021542     36976.26 
   26700     302.5129   -1208.0593    374.28808    531.45327    231.88906     36976.26 
   26800    309.85372   -1302.2701    350.68114    446.76431    872.26482     36976.26 
   26900    289.34251   -1295.7898    372.71804     382.7155    432.34438     36976.26 
   27000    294.00965    -1332.918    360.58242    354.51417    192.44032     36976.26 
   27100    299.68228   -1281.5763     370.3428    441.21658    815.15741     36976.26 
   27200    304.13235   -1251.1083    375.46636    496.89108     181.6014     36976.26 
   27300    292.73554   -1297.4975     354.4164    378.01873    282.24412     36976.26 
   27400    303.28494   -1300.5206    357.72522    425.91331     409.5814     36976.26 
   27500    296.22316   -1309.1026    356.94451    384.68119   -32.388636     36976.26 
   27600    299.79148   -1286.5336     355.5988    422.00806   -353.67482     36976.26 
   27700     300.8122   -1286.8865    361.53476    432.19763    173.16983     36976.26 
   27800     290.3836   -1305.6992     363.3022    368.08863   -172.39317     36976.26 
   27900    307.02067   -1271.0152    374.09693    488.64953   -183.92645     36976.26 
   28000    303.32434   -1291.9316    364.30164    441.25652    131.99956     36976.26 
   28100    292.11395   -1245.1222    383.45884    456.63121   -145.00835     36976.26 
   28200    299.05966   -1240.6132    374.07147    483.09847   -49.957363     36976.26 
   28300    300.62484   -1242.3662    373.66306     488.0007    196.81887     36976.26 
   28400    305.98005    -1299.827      381.907    462.95154    59.200714     36976.26 
   28500    299.13183   -1279.8712    378.86539    448.96008    36.380478     36976.26 
   28600    294.35481   -1275.9207    379.11573     431.6025    364.14441     36976.26 
   28700    303.24699   -1311.9128    380.67656    437.30115    447.66232     36976.26 
   28800    300.27848    -1302.534    360.83692    413.44366    274.45387     36976.26 
   28900     293.5883   -1280.0955    393.33693    438.18966    444.65737     36976.26 
   29000     304.5862   -1288.4692    376.94155    463.05359   -90.644793     36976.26 
   29100    299.66407   -1322.0665    347.59715    377.89853    425.66186     36976.26 
   29200    301.31326   -1342.6492     359.8179    376.97925   -67.227863     36976.26 
   29300    295.83505   -1335.0467    383.04895    383.08999    250.75206     36976.26 
   29400    309.48654   -1304.4883    377.75869     469.9666    316.76882     36976.26 
   29500    307.75049   -1285.0924    379.25944    483.02848    257.49565     36976.26 
   29600    291.91281   -1281.6927    372.19508    407.88921   -193.62393     36976.26 
   29700    298.64715   -1281.3304    393.12003    459.56825     -462.002     36976.26 
   29800    303.81012   -1293.2466    379.71303    457.54527   -523.31646     36976.26 
   29900     297.2273   -1273.1948    382.71516    450.89126   -179.54909     36976.26 
   30000    295.30113   -1301.8536    390.79966    421.62426   -447.47769     36976.26 
   30100    304.19922   -1264.8745    375.65788    483.61814    167.56575     36976.26 
   30200     294.9727   -1321.0207    369.74213    379.91742   -476.39592     36976.26 
   30300    304.19234   -1326.5511    395.89403    442.14661    -403.4846     36976.26 
   30400     301.6406   -1325.2244    384.53776    420.60127   -14.098074     36976.26 
   30500    304.22632   -1292.0998    375.60016    456.45744   -317.05605     36976.26 
   30600    296.13311   -1314.0408    376.50251    398.89454   -297.07163     36976.26 
   30700    298.41412   -1285.9344    366.10787    426.90037    142.24237     36976.26 
   30800    298.21364   -1321.6902    363.03423    387.16618   -203.49837     36976.26 
   30900    305.97514   -1353.4095    389.88536    417.32526   -292.85145     36976.26 
   31000    290.93579   -1328.0946    375.26839    360.15143    81.190141     36976.26 
   31100    304.04742   -1282.3426     397.1438    486.95092    137.45589     36976.26 
   31200    292.36852   -1302.7231    366.28549    383.00583    -285.2964     36976.26 
   31300    302.61123   -1327.3264    355.66238    394.00422   -258.93415     36976.26 
   31400    297.24411   -1348.2112    376.93028    370.16586    122.82096     36976.26 
   31500    310.75509   -1307.9629    381.24504    475.70321    269.78017     36976.26 
   31600    300.43537   -1309.4304    396.50071    442.91909     293.1081     36976.26 
   31700    309.85163   -1290.3051    367.30252    475.34124    676.29043     36976.26 
   31800    303.68393    -1297.482    383.59213    456.61949    272.34907     36976.26 
   31900     300.4072   -1300.9065    388.82582    443.64093    56.718292     36976.26 
   32000    311.97855   -1300.6899     365.5465    472.79907    648.82133     36976.26 
   32100    300.32414   -1274.9057    368.65373    449.09482    310.94617     36976.26 
   32200    292.91988    -1288.876    382.49467    415.55041    112.60799     36976.26 
   32300    306.19139    -1317.306     385.9032    450.42256    780.80645     36976.26 
   32400    300.57069   -1336.0118    373.87219    394.31981    334.38327     36976.26 
   32500    297.62147   -1308.3996    392.75843    427.50861    85.770517     36976.26 
   32600     304.7867   -1267.1157    381.86865    490.23899   -90.946708     36976.26 
   32700    303.83207    -1297.523    385.34725    459.00212   -231.80957     36976.26 
   32800    311.32437   -1319.0854    402.60941    488.51424    146.96678     36976.26 
   32900    291.34884    -1319.429    389.89305     385.3058   -94.906631     36976.26 
   33000    309.23256   -1303.6981    367.11923    458.97111    314.05358     36976.26 
   33100    306.36223   -1314.1285    376.41504    444.88292   -50.767022     36976.26 
   33200    307.32591   -1296.3829    366.06387    456.62629    145.57002     36976.26 
   33300    292.05299   -1293.3837    374.86177    399.49756   -11.916133     36976.26 
   33400    296.67067   -1278.1127    369.75866    430.50479   -222.05329     36976.26 
   33500    306.94359    -1284.413     390.6672     491.4742   -373.08544     36976.26 
   33600    296.39558   -1327.9782    393.73852    403.37774   -870.79676     36976.26 
   33700    295.56834   -1330.9516    364.37665    367.30913   -347.43433     36976.26 
   33800    298.75934   -1330.6123    395.11439    412.78701    208.25669     36976.26 
   33900    294.97361   -1344.4743    383.58481    370.31058    380.74792     36976.26 
   34000    301.69466   -1337.4946    392.05053    416.08778    652.36737     36976.26 
   34100      301.499   -1351.5771    373.89264    382.96435   -183.97776     36976.26 
   34200    303.35014   -1358.8494    377.73042    387.88391   -188.12675     36976.26 
   34300    299.02337    -1349.735    374.03023    373.77165    498.01329     36976.26 
   34400    293.16761   -1360.6939    381.39556    343.75144    264.22419     36976.26 
   34500      302.461   -1332.3915    375.02087     407.6196    315.06894     36976.26 
   34600    298.82108   -1314.4603    390.43807    424.54125   -17.768432     36976.26 
   34700    297.06167   -1319.8126    372.14837    392.95922    883.00534     36976.26 
   34800    298.73715   -1336.4431    393.65374    405.39537    556.17189     36976.26 
   34900    295.50989   -1304.5475    380.24712    409.31998    457.58266     36976.26 
   35000    293.33344   -1318.8025    395.92091    400.91653    535.12181     36976.26 
   35100      305.592   -1342.9143    393.48194    429.68799    277.49271     36976.26 
   35200    297.98718   -1322.7484    405.62226    427.67404     244.0118     36976.26 
   35300    296.23334   -1349.0984    386.30965    374.09645    353.77863     36976.26 
   35400    304.35358   -1340.9568    373.44692     406.0215     174.2531     36976.26 
   35500    296.43249   -1358.9632    395.36698    374.18775      46.2628     36976.26 
   35600    298.25481   -1323.2945    387.95677    410.67024   -133.32083     36976.26 
   35700    307.90428   -1310.6708    394.32532    473.21003    310.89753     36976.26 
   35800     296.8208   -1309.5061     424.1662     454.1965    11.474503     36976.26 
   35900    312.28035   -1320.2419    400.05249    489.11504    62.331549     36976.26 
   36000     302.6514   -1328.8318    380.10367    417.12145    53.835212     36976.26 
   36100    290.19749   -1298.0167    389.47632    401.10528    22.739933     36976.26 
   36200    288.73369   -1330.7324    388.63822    360.94554    111.54756     36976.26 
   36300    300.35081   -1330.6469    400.46541     425.2856     302.7327     36976.26 
   36400    305.67424   -1337.5062     380.1247    422.10991   -663.91857     36976.26 
   36500    291.22752   -1318.2614    388.49348    384.52626   -78.076527     36976.26 
   36600    299.42189   -1319.5204    387.88788    419.64244    245.54141     36976.26 
   36700    289.78851   -1303.7962    408.09788     412.1017   -171.98741     36976.26 
   36800    295.44153   -1269.8955    390.00025    453.41657   -82.419469     36976.26 
   36900    300.62306   -1310.8553    360.95621    406.79667     395.2425     36976.26 
   37000    296.13331   -1285.6633    410.51177    461.28223    615.13613     36976.26 
   37100    302.44254   -1305.6594    392.93366    452.18127    12.669818     36976.26 
   37200     291.9019   -1309.5407     383.5596     391.3565    144.70223     36976.26 
   37300    290.76398   -1337.6271    384.38585    358.96102    574.94571     36976.26 
   37400    297.60142   -1332.3497    406.29668    417.00622    704.83576     36976.26 
   37500    293.28875   -1324.0227    363.54929    363.12303   -255.97899     36976.26 
   37600    295.04531   -1307.4492    397.55348    421.62796   -121.65923     36976.26 
   37700    292.55778   -1300.7236    386.85579     406.4298   -409.58622     36976.26 
   37800     294.2007   -1326.6433     409.0445    410.11315   -12.020243     36976.26 
   37900    295.39578   -1338.0841    396.45205     391.4733    158.09345     36976.26 
   38000    304.23932   -1337.0805    388.01272    423.94802    78.187994     36976.26 
   38100    297.31012   -1314.6315    372.92271    400.03586    -346.5678     36976.26 
   38200    289.95183   -1315.1286    367.31035    360.71882    10.163333     36976.26 
   38300    299.18351   -1288.4531    383.71425    445.46029    -235.1636     36976.26 
   38400    294.46043   -1298.7683     413.8648     443.9806    151.22715     36976.26 
   38500    294.66225   -1326.6523    386.58836    389.73101   -254.15716     36976.26 
   38600    293.97723   -1351.3267    404.88087    380.25766    161.71894     36976.26 
   38700    306.61169   -1400.1611    404.09789    387.65894     246.6654     36976.26 
   38800    296.26038   -1342.9462    410.98666    405.04769    208.81438     36976.26 
   38900    307.43728   -1372.5339    391.21154    406.12565   -71.912283     36976.26 
   39000    292.74505   -1355.2812    381.08783    346.94939    304.17888     36976.26 
   39100    301.34376   -1370.7398    387.94645    377.15485    283.10483     36976.26 
   39200    304.42404   -1359.2487    392.37062    406.97127    315.52389     36976.26 
   39300    319.14498   -1355.3926    387.90263     472.7942   -129.63359     36976.26 
   39400    301.60819   -1369.8728    387.30809    378.57687   -204.61306     36976.26 
   39500    296.07855   -1370.8012    395.33104    360.71643   -681.23551     36976.26 
   39600    310.11651   -1366.2914    395.44651    428.69433    38.569874     36976.26 
   39700    292.53484   -1324.8479    404.29773    399.64389   -775.12505     36976.26 
   39800    295.38511   -1325.0244    385.23135     393.2641   -102.25667     36976.26 
   39900    311.98318   -1348.1398    397.81196    457.63552   -197.40349     36976.26 
   40000    290.59818   -1315.3433      394.324    390.43477   -400.04813     36976.26 
   40100    298.76577   -1345.5882    403.01923    405.74494   -308.85882     36976.26 
   40200    305.32009   -1349.4742    406.63591    435.05494    -555.2411     36976.26 
   40300    294.34969   -1300.0203    415.21567    443.57978   -119.28485     36976.26 
   40400    302.78618   -1324.1048    397.74583    440.09882    110.99953     36976.26 
   40500     295.2345   -1315.5495    406.00466     422.8326   -23.896458     36976.26 
   40600    310.63521   -1358.2291    412.50691    456.15788     337.4403     36976.26 
   40700    296.18063   -1317.1966     402.6267    422.07741   -162.46033     36976.26 
   40800    294.58607   -1332.3452    390.85471    387.96066   -115.00129     36976.26 
   40900    296.50721   -1321.1757    408.23222    425.17767   -666.47207     36976.26 
   41000    302.06196   -1316.0799    402.50673    449.61631   -76.425477     36976.26 
   41100    289.45715   -1284.6168    393.04883    414.73666    65.968165     36976.26 
   41200    304.35669    -1308.994    390.34634    454.89781    175.24922     36976.26 
   41300    292.11422   -1268.6164    397.25096    446.93039    256.62848     36976.26 
   41400    301.94287   -1333.3563    411.84332    441.13901    229.84361     36976.26 
   41500    306.82241   -1356.6431    399.41974    427.44972    112.27989     36976.26 
   41600     306.7538   -1314.9531    407.95131    477.36169   -377.26188     36976.26 
   41700    307.90441   -1371.6013    384.57581    402.53058    233.22156     36976.26 
   41800    311.28303    -1376.933    397.34499    425.21566    245.77277     36976.26 
   41900    301.24963   -1365.8047    418.97409    412.69286   0.45554729     36976.26 
   42000    297.43418   -1346.3367    415.03147    410.99932   -78.433717     36976.26 
   42100    303.99405   -1365.2469     378.8881    385.55001   -290.24713     36976.26 
   42200    299.17063   -1360.2492    393.94444     383.8363   -388.41753     36976.26 
   42300    297.03008   -1375.9087    398.96859    363.54073   -266.53931     36976.26 
   42400    299.55798   -1368.8379     403.0071    386.05836   -329.60299     36976.26 
   42500    294.56703   -1321.8292    404.64716    412.18312    80.715755     36976.26 
   42600    293.32052   -1348.6113    405.01204    380.14051   -45.944153     36976.26 
   42700    306.15526   -1408.1756    377.65648    351.14314   -360.42652     36976.26 
   42800    300.79082   -1408.2562    387.10272    336.29935   -343.34457     36976.26 
   42900    288.29588   -1416.1773    409.16032    294.04685   -646.72795     36976.26 
   43000    303.22043   -1361.2586    423.81438    430.97331   -411.46788     36976.26 
   43100    292.46627   -1364.7071    419.10329    374.28077   -87.570044     36976.26 
   43200    302.02712   -1346.5516    390.28103    406.76164   -352.64271     36976.26 
   43300    291.27147   -1378.6033    401.14124    337.03054   -434.23723     36976.26 
   43400    307.01081   -1355.7251    403.83718    433.63539   -207.82507     36976.26 
   43500    298.20788    -1362.509    393.68538    376.97258    413.13532     36976.26 
   43600    309.66131   -1416.6715    412.75311    393.56654   -229.43624     36976.26 
   43700    300.55612   -1369.0027    400.67005    388.06106    252.71086     36976.26 
   43800    292.32618   -1394.0205    412.27669    337.50856   -35.863452     36976.26 
   43900    303.99118   -1357.0482    394.84275    409.69044   -289.04765     36976.26 
   44000    298.67282   -1394.7464    401.11384    354.26186   -271.56496     36976.26 
   44100    290.75357   -1396.0108    409.45103    325.59548   -200.29818     36976.26 
   44200    305.71674   -1395.2263    409.60455    394.06149   -162.58002     36976.26 
   44300    306.90885   -1359.6743    444.35074    469.73967   -92.428148     36976.26 
   44400    295.91512   -1376.7597    414.79289    373.48232    79.479062     36976.26 
   44500    289.13229   -1365.7552    400.51545    339.59876    47.179769     36976.26 
   44600    304.95763    -1362.229    423.49125    437.51969   -372.53833     36976.26 
   44700    301.84325    -1388.881    410.04681    383.36827   -289.94485     36976.26 
   44800    300.12643   -1335.6018    385.41257    404.26523   -101.95059     36976.26 
   44900    287.74863   -1367.1284    405.03628    336.50208   -644.02364     36976.26 
   45000     298.1089   -1364.1869    408.34109    389.50372    618.85082     36976.26 
   45100    303.61468   -1358.1022     409.9052    421.99977    388.07399     36976.26 
   45200    297.25799   -1362.6632    415.72608    394.57231    12.660076     36976.26 
   45300    297.58311   -1410.3411    385.66987    318.30541    -94.55173     36976.26 
   45400    299.32505   -1394.7378    402.05328    358.15338    241.02501     36976.26 
   45500    299.39169   -1415.9289    445.60816    380.81786    531.13984     36976.26 
   45600    306.04254   -1363.4927    430.51714    448.17799    75.951489     36976.26 
   45700    304.96633   -1400.6353    429.52211    405.18352   -88.597425     36976.26 
   45800    292.23657    -1357.432    412.95038    374.36637    428.67141     36976.26 
   45900    296.43726   -1340.9896    432.94027    429.75613    560.68888     36976.26 
   46000     286.1878   -1346.7787     429.3731    374.14461    28.722081     36976.26 
   46100    295.10452   -1331.3504    428.16557    428.60611    61.244381     36976.26 
   46200    300.16975   -1337.6688    421.03559    438.01674     408.5104     36976.26 
   46300    309.41645   -1417.9868      407.539    385.93208    330.58511     36976.26 
   46400    295.73944   -1414.6004    415.76369    335.81958    189.15638     36976.26 
   46500    296.37574   -1378.7573    419.27122    378.04178    574.48392     36976.26 
   46600     298.7955   -1362.9182    404.30348    389.83331    801.21182     36976.26 
   46700    306.24565   -1383.9606    405.25707     403.3667    398.58762     36976.26 
   46800    293.64326   -1394.2395    401.26891    332.22573    555.12675     36976.26 
   46900    287.76857   -1350.1873     408.0745    356.57136      436.563     36976.26 
   47000    307.79573   -1416.3306    431.86811    404.60313     717.8693     36976.26 
   47100    305.16725   -1337.9514    429.26884    468.52091    764.28653     36976.26 
   47200    296.21244   -1340.4221    432.09349    428.46229    820.30108     36976.26 
   47300    292.04666   -1356.8625    418.53531    379.66371    304.46964     36976.26 
   47400    305.29425   -1373.1247    424.30435    428.95626    109.67091     36976.26 
   47500    300.06005   -1318.8878    401.65063    436.91777    157.14452     36976.26 
   47600    297.04046   -1289.8382    420.78685    471.47631   -16.295161     36976.26 
   47700    295.38619   -1352.5837     408.7568    389.23512     6.811351     36976.26 
   47800    291.96322   -1343.3827    437.97863    412.21027   -422.63708     36976.26 
   47900     297.8869   -1281.6952     405.5385    468.19094    53.414934     36976.26 
   48000    314.48496    -1343.409    458.62141    534.46619    545.07389     36976.26 
   48100    293.98707   -1339.2318    437.69889    425.21501    615.65916     36976.26 
   48200    310.14286   -1357.9408    433.10215    474.81942   -106.23717     36976.26 
   48300     299.9911    -1354.435    434.39697     433.8057    51.170703     36976.26 
   48400    301.15527   -1339.7275    414.27735    433.64742   -340.39683     36976.26 
   48500    311.28012    -1301.055    416.28051    520.01604   -29.144709     36976.26 
   48600    290.14345   -1311.5273    414.49868    412.37318   -633.82979     36976.26 
   48700    304.27935   -1340.0683    393.02595    426.15408    47.532101     36976.26 
   48800    292.38236   -1339.8254    412.63339     392.3139    335.64309     36976.26 
   48900    293.18257   -1329.3887    417.20284     410.9314   -164.01966     36976.26 
   49000     297.3133   -1351.3501    414.11063    404.51951    526.22077     36976.26 
   49100    298.19088   -1355.2917    426.28251    416.71029    685.50154     36976.26 
   49200    292.45496   -1331.6698    413.39163    401.55542   -195.71409     36976.26 
   49300    288.80363   -1338.7291    449.74883    414.37507   -35.580105     36976.26 
   49400    303.49964   -1287.3172    444.44243    526.80289    378.88356     36976.26 
   49500    298.67222     -1290.45      451.185    508.62679     288.1899     36976.26 
   49600    304.15954   -1346.8301    432.10914    457.93475    414.04966     36976.26 
   49700    310.14001   -1333.2115    430.41709    496.85084    270.30356     36976.26 
   49800    308.66936   -1342.7753    413.75834    463.99127    405.68559     36976.26 
   49900    299.47642   -1335.0766    440.00678    456.45126    121.28113     36976.26 
   50000    293.63811    -1287.496     420.9598    458.63689   -85.003685     36976.26 
   50100    301.60348   -1321.6496    427.39841    466.86921    501.07396     36976.26 
   50200    293.30985   -1346.6997     417.6408    394.63277   -231.32391     36976.26 
   50300    289.67639   -1332.0412    428.97313    404.22599   -84.671525     36976.26 
   50400    296.36418   -1352.1111     432.0503    417.41483    183.34444     36976.26 
   50500    304.07358   -1368.9082    402.08642    405.44603    281.99223     36976.26 
   50600     299.2237   -1335.7394    434.81582    449.45689   -336.62282     36976.26 
   50700    301.07111   -1345.8191    435.97807    448.87674   -675.08969     36976.26 
   50800    298.56011   -1354.9427    394.77112    387.21425   -189.73422     36976.26 
   50900     293.4324   -1383.9021    420.53767    360.88024    -95.68088     36976.26 
   51000    305.79621    -1394.857    445.28031    430.46523    356.10869     36976.26 
   51100    307.03288   -1383.8792    410.42685    412.17055    240.79628     36976.26 
   51200    305.37558   -1397.8031    421.53758    401.87808    286.00403     36976.26 
   51300    297.35193   -1400.3511    397.77388    339.35613    274.49599     36976.26 
   51400    302.54143   -1431.5354    410.54425    344.36206    74.733144     36976.26 
   51500     291.5421   -1425.8165    409.44822    299.34563    313.95433     36976.26 
   51600    305.44608   -1389.5058    410.13691    399.09286    485.77872     36976.26 
   51700    295.83543   -1402.6041    430.03614    362.52149   -40.685949     36976.26 
   51800     296.6857   -1359.3259    440.83387    420.43462     208.0429     36976.26 
   51900    308.11311   -1382.6693    430.07943    437.90808    229.80613     36976.26 
   52000    300.36825    -1464.321    401.69519    292.92003     77.07267     36976.26 
   52100    292.44265   -1410.9471    417.47895    326.30986      464.786     36976.26 
   52200    324.90374   -1441.4568    394.06891    418.88524    681.36716     36976.26 
   52300    296.16353   -1445.0661    422.76943    314.27347   -48.326503     36976.26 
   52400    304.89933   -1420.4176    419.37078    374.94756     112.9786     36976.26 
   52500    294.20886   -1405.0117    426.31435    349.05148   -516.66127     36976.26 
   52600    302.89153   -1365.5516    439.54653    440.92819   -134.91645     36976.26 
   52700     310.0352   -1405.5002    408.39473    402.06679   -451.29504     36976.26 
   52800    297.00827   -1401.9566    418.87019      357.296   -222.77383     36976.26 
   52900    298.49212   -1415.5893    417.76433    349.25399   -278.17919     36976.26 
   53000     294.2493   -1363.5549    415.18891    379.56531    82.305855     36976.26 
   53100    309.35428   -1381.8117    402.91953    417.20717    204.88916     36976.26 
   53200    305.65578   -1394.2509    413.72672    398.88395    725.59166     36976.26 
   53300    294.31954   -1370.3917    405.53513    363.39181    768.34998     36976.26 
   53400    289.35718   -1434.6085    424.73836    295.98333    286.16326     36976.26 
   53500    303.95204   -1387.9482    418.02808    401.79913     122.3884     36976.26 
   53600    308.65111   -1402.9462    429.97801    419.95778    120.82202     36976.26 
   53700    297.06779   -1344.0873    429.15269     425.7164    286.88353     36976.26 
   53800    295.80282   -1353.5336    429.14336    410.55204    431.95434     36976.26 
   53900     300.2961   -1361.8339    446.30086    439.68718    138.79813     36976.26 
   54000    303.95931   -1336.1007    431.82566    467.47703    23.794603     36976.26 
   54100    301.36054   -1339.5262    444.94472    465.44251   -46.289171     36976.26 
   54200    304.96441   -1319.0116    430.40175    487.67817    383.01713     36976.26 
   54300    286.86057   -1356.7318    445.29316    383.14772   -99.849525     36976.26 
   54400    295.67332   -1369.0264    426.68438    392.01584   -450.52118     36976.26 
   54500    294.84814   -1360.2701    430.63931    401.00309    -301.9561     36976.26 
   54600    299.88508   -1335.9464    443.90044     461.3194   -15.385128     36976.26 
   54700    298.74129   -1355.9038    450.60983    442.90944   -118.77985     36976.26 
   54800    302.38896   -1360.1527    448.57702    453.08947   -63.500024     36976.26 
   54900    307.48862   -1353.6795    424.12068    458.12084   -5.1300046     36976.26 
   55000    290.20339   -1411.2988    449.76909    348.14258    368.57654     36976.26 
   55100     311.3606   -1394.4605    433.53236     444.2256    464.79171     36976.26 
   55200    296.56314   -1362.6347    430.68713    406.42594    311.17577     36976.26 
   55300    297.05914   -1334.9712     417.7102      423.351   -15.783119     36976.26 
   55400    293.08286   -1352.1266     421.4245    391.96512   -674.64822     36976.26 
   55500    298.92514   -1317.6829    420.26221    451.61245   -750.74048     36976.26 
   55600    295.16433   -1353.4757    458.62097     437.2061   -119.28919     36976.26 
   55700    292.76084   -1337.3144    435.19391    419.09348   -58.954625     36976.26 
   55800    301.42929   -1358.7324    414.29779    415.89962    -240.8397     36976.26 
   55900    298.41698    -1334.438    423.60781    435.90963    393.84174     36976.26 
   56000    302.05736   -1360.2644    433.87579    436.78005   -390.20145     36976.26 
   56100    306.58482   -1351.9559    435.28422    466.92912    42.750249     36976.26 
   56200    305.99054   -1352.7642    451.87911    480.03381    314.82544     36976.26 
   56300    302.55078   -1387.7745    448.59823    426.21919    214.93396     36976.26 
   56400    291.16248   -1374.8876    447.45689    386.56998    326.86111     36976.26 
   56500    308.77879   -1309.2127    441.20287     525.4923    -225.2581     36976.26 
   56600     299.7503   -1330.8135    440.61165    462.55523    408.42831     36976.26 
   56700    288.89688   -1372.8336    444.36919    375.31176     375.9422     36976.26 
   56800    299.57871   -1364.9946    467.48252    454.47061    464.19727     36976.26 
   56900    295.81431   -1359.8542     434.5111    409.65099    216.04108     36976.26 
   57000    293.97074   -1387.6441    430.04931     369.0794    229.79417     36976.26 
   57100    299.39763   -1408.4967    424.55012    367.21895    191.68996     36976.26 
   57200     296.8587   -1378.1536     421.1674    382.72119    364.29982     36976.26 
   57300    304.33829   -1376.5206    444.35101    441.29279    298.67802     36976.26 
   57400    304.28971   -1350.8248    449.86638    472.28472    673.29277     36976.26 
   57500    293.58064   -1396.4821    436.47681     364.9084   -451.61006     36976.26 
   57600     314.9078   -1371.6862    426.01324    475.48908    -18.76336     36976.26 
   57700    301.59966   -1357.9989     421.9024    425.00658    180.07412     36976.26 
   57800     302.2727   -1363.2662    428.65578    429.53009   -475.61941     36976.26 
   57900    303.97614   -1350.8435    442.13054     463.1151   -537.70253     36976.26 
   58000    299.37348   -1419.4367    437.42364    369.04343   -876.27433     36976.26 
   58100     303.5938    -1401.941    441.40888    409.57039   -410.50205     36976.26 
   58200    291.36192   -1382.9962     429.5939    361.49846   -778.03566     36976.26 
   58300    302.49638   -1401.5844    450.33034    413.89587   -46.480362     36976.26 
   58400    297.31944   -1375.9023    456.11106    421.99545    -439.0462     36976.26 
   58500    310.23072   -1365.2781    450.59976    485.37632   -102.05723     36976.26 
   58600    302.72135     -1357.14    425.15514    434.18037    -192.2551     36976.26 
   58700     298.7183    -1373.665    437.63615     412.0708    191.25799     36976.26 
   58800    295.99288   -1361.1005    441.91945    416.61893   -166.99187     36976.26 
   58900    292.00535   -1381.3109    467.33368    403.82726   -46.142936     36976.26 
   59000    311.48693   -1381.4349    448.05822    472.34715    44.776075     36976.26 
   59100    308.98132   -1387.1194    461.24963    468.54636   -621.11948     36976.26 
   59200    297.96753   -1364.4066    458.15682    438.46177   -314.99299     36976.26 
   59300    291.29766    -1384.066    456.61104    387.15573   -664.15694     36976.26 
   59400    305.09119   -1412.2786    450.85549    415.43706   -350.64865     36976.26 
   59500    286.66503   -1415.6981     464.2465    342.25233   -345.12715     36976.26 
   59600     303.0125   -1386.4497    474.92566    455.95514    381.47147     36976.26 
   59700    301.55727   -1403.3249    440.53872    398.12557    560.67478     36976.26 
   59800      293.422   -1409.8249    438.65505    353.02796    182.74345     36976.26 
   59900    296.38325   -1424.0253    458.32287    371.85927    399.62274     36976.26 
   60000    303.46374   -1376.6701    440.20524    433.05072    799.83176     36976.26 
   60100    300.54543   -1383.0145    455.60881    428.93975    577.82478     36976.26 
   60200    304.80498   -1436.3397     430.4805     369.7093    122.58818     36976.26 
   60300    302.08608   -1408.0946     443.1977    398.40136    20.147846     36976.26 
   60400    300.69931   -1386.7171     449.9815    420.30426    303.89585     36976.26 
   60500    305.39073   -1399.5896    442.67374    421.29616    258.28326     36976.26 
   60600    292.14883   -1367.4336    442.04885    393.06732    144.41635     36976.26 
   60700    304.01087    -1430.275    440.07001    381.77981    803.05429     36976.26 
   60800    302.80904   -1419.7443    450.11937    396.93605     133.7608     36976.26 
   60900    300.66187   -1386.0726    456.35487    427.15313    792.60032     36976.26 
   61000     298.6697   -1419.9997    439.84744    367.72811    239.12381     36976.26 
   61100    288.79476    -1432.888    444.83491    315.26225   -117.93466     36976.26 
   61200    291.72117    -1463.582    442.67261    295.61263   -722.76071     36976.26 
   61300    291.08118   -1411.8055    451.52821    353.35653   -93.958943     36976.26 
   61400    301.64159   -1449.0831    445.51685     357.7261   -303.82545     36976.26 
   61500    296.96824   -1437.2772    429.92034    332.84493   -151.95328     36976.26 
   61600    297.38016   -1419.7413    451.57182    373.89118   -560.70012     36976.26 
   61700    301.28079   -1396.2198    440.93771    404.38199     -467.377     36976.26 
   61800    301.26425   -1433.3865      452.409    378.61191   -554.67957     36976.26 
   61900    294.74084   -1400.3959    467.52281    397.27657   -1127.4011     36976.26 
   62000    295.03219   -1439.1886    431.27953    323.55535   -1169.4698     36976.26 
   62100    305.02904   -1451.5917    431.52133    356.50931   -479.92277     36976.26 
   62200    293.15861     -1459.27    434.57035    298.30942   -666.99068     36976.26 
   62300    305.38437   -1383.8462    415.55736    409.89445   -15.580971     36976.26 
   62400    294.09859   -1397.1234     453.3231    383.45091   -748.89521     36976.26 
   62500    301.88819    -1456.097    467.89287    374.20113   -343.20263     36976.26 
   62600    292.54521   -1455.6904    421.00077    285.55123   -96.264847     36976.26 
   62700    305.41792   -1449.6281    431.24623    359.95281   -307.55259     36976.26 
   62800    300.49735   -1411.8802    425.43701    369.68531   -120.17993     36976.26 
   62900    302.45606   -1433.1527    447.57138    379.38666   -946.28341     36976.26 
   63000    304.69638   -1413.9535    461.22915     422.3541   -895.12156     36976.26 
   63100    294.86469   -1405.0074    453.87655    379.57771   -599.01731     36976.26 
   63200    304.11422   -1377.2426    475.00395    470.21253    -432.6803     36976.26 
   63300    307.92078   -1417.7124    448.90497     420.8225   -219.40908     36976.26 
   63400    291.71671   -1422.2512    484.85834    379.10902   -153.75921     36976.26 
   63500    297.89015   -1446.5518    484.55614    382.36657     45.21411     36976.26 
   63600    302.81528   -1414.0081      465.725    418.30597    543.48922     36976.26 
   63700    302.21227   -1381.8939     481.9104    463.88425    148.50071     36976.26 
   63800    305.40763   -1387.6218    450.72387    441.39037   -305.28964     36976.26 
   63900     301.2597   -1372.4428    441.87405    429.00011   -299.00476     36976.26 
   64000    292.50068   -1376.1278    446.54936    390.46149   -73.496648     36976.26 
   64100    304.73139   -1374.4547    463.65657    464.43831   -167.25112     36976.26 
   64200    296.07995   -1393.2817    476.26779    419.17907    408.86897     36976.26 
   64300    299.81438   -1394.0584    450.57385    409.56167   -19.832898     36976.26 
   64400    292.29043   -1390.6755    467.14701     395.5625   -248.99469     36976.26 
   64500    294.53542   -1398.4265    469.96654    400.76266   -398.15504     36976.26 
   64600    290.22098   -1440.6451    457.15241    326.25903   -270.36407     36976.26 
   64700    294.80319   -1417.6678    452.73427    365.49748   -61.641459     36976.26 
   64800    305.97831   -1435.8739     426.6793    371.66906   -556.61173     36976.26 
   64900    287.29421   -1458.1702    438.36971    276.74284   -293.70122     36976.26 
   65000    306.75778   -1439.8214    442.07083     386.6308   -522.39636     36976.26 
   65100    302.95137   -1434.4501    463.11852    395.87174     304.3393     36976.26 
   65200    300.55779   -1424.2559    475.85009    407.99537   -144.38853     36976.26 
   65300    309.29081   -1411.5497    449.41044    433.67359   -456.35478     36976.26 
   65400    304.00562   -1379.6927    434.44223     426.7106    -719.9036     36976.26 
   65500    296.19381   -1426.0041    460.29106    370.99378    -79.97684     36976.26 
   65600    293.61499   -1391.4793     480.9122    414.50163   -18.064718     36976.26 
   65700    303.97782   -1377.0909     445.4564    440.20115   -30.965509     36976.26 
   65800    293.45455   -1396.7653    469.82045    397.39979   -156.57579     36976.26 
   65900    299.29707   -1430.7469    464.49344    384.45813    -384.2493     36976.26 
   66000    299.86997   -1414.8697    448.54846    386.97582    134.58541     36976.26 
   66100    300.62314   -1491.0032    435.92629    301.61917   -88.406069     36976.26 
   66200    305.17885   -1453.9655    441.69917    364.98943    444.24491     36976.26 
   66300    292.19437   -1390.1395    455.90759     384.4256    382.67479     36976.26 
   66400    305.68469   -1400.3437     472.7175    451.91241    861.78189     36976.26 
   66500    293.45659   -1381.6531    457.31768    400.01849    809.31923     36976.26 
   66600    300.74246   -1388.2216    476.87371    445.88669    1020.7676     36976.26 
   66700    306.36087   -1370.7657    483.26609     495.0906    720.58404     36976.26 
   66800    309.89178   -1411.3688    434.65679    421.81304    227.77632     36976.26 
   66900    304.85008   -1411.9193    465.52858    429.38139    181.50661     36976.26 
   67000    300.42168   -1408.0211    433.79979    381.56565   -343.03096     36976.26 
   67100    295.45297   -1439.1457    447.28522     341.5029    94.058299     36976.26 
   67200     289.7397   -1430.6699    454.70641     331.6162    158.99988     36976.26 
   67300    302.64679   -1404.1525    457.82259    419.49881    461.20472     36976.26 
   67400     291.1715   -1407.8152    463.70549    369.93168    121.95515     36976.26 
   67500    301.57046   -1426.0808    460.75617    395.64671   -2.8671821     36976.26 
   67600    297.15421   -1381.5774    448.91384    408.37746     504.1773     36976.26 
   67700    297.76955   -1426.8344    478.39926    395.38294     168.3553     36976.26 
   67800    297.27084    -1460.973    462.14551    342.73991    989.88497     36976.26 
   67900    288.25433   -1432.2587    463.72622    332.34384     906.0923     36976.26 
   68000    307.84545   -1472.3347    445.15159     362.1069    957.52119     36976.26 
   68100     301.7324   -1397.8527    470.24125    434.09073    1173.7378     36976.26 
   68200    310.15581   -1469.4365     451.2731    381.55317    491.90073     36976.26 
   68300    306.07857   -1420.4028    474.42369     435.3371    195.61967     36976.26 
   68400    283.47614   -1382.8259    476.60302    373.08975    458.54219     36976.26 
   68500    309.10851   -1361.2625    483.56809    517.29574    4.7767881     36976.26 
   68600    307.77935   -1408.4337    418.63241     399.1904   -183.68628     36976.26 
   68700    300.62627   -1397.4768    445.93236     405.1658   -364.14684     36976.26 
   68800    306.00602   -1364.5873    457.96768    474.36913    37.670237     36976.26 
   68900    299.43357   -1418.8515    427.19177    359.66794    239.50274     36976.26 
   69000    293.19447   -1364.1413    473.20749    432.23713   -155.93869     36976.26 
   69100    297.64514   -1394.2484    452.26453    401.27268     83.59722     36976.26 
   69200    292.65141   -1417.4551    474.10613    377.37122    1061.6482     36976.26 
   69300    301.13604     -1401.36    475.26107    432.91186   -26.617436     36976.26 
   69400    297.75258    -1464.094     467.0103    346.65769    227.34461     36976.26 
   69500    300.70187   -1446.8019    439.06418     349.3137    -111.0375     36976.26 
   69600    296.60135   -1439.0814    463.82701    363.29164    -562.6545     36976.26 
   69700    299.10766   -1414.1307    469.69815    405.42425   -107.57665     36976.26 
   69800    289.82465   -1438.5712    447.46621    316.85815   -473.79612     36976.26 
   69900     299.5132   -1480.3028    445.89867    317.28294   -233.10152     36976.26 
   70000    307.78933   -1463.7974     449.8921    375.13145   -622.28399     36976.26 
   70100    301.07818   -1438.7249    435.89986    355.92459   -401.32053     36976.26 
   70200    308.42467   -1381.3004    469.56814    480.17175   -398.21699     36976.26 
   70300    302.69003   -1443.3271    463.43781    386.13456   -78.367514     36976.26 
   70400    309.76274    -1434.552    447.12133    410.51203    304.73871     36976.26 
   70500    305.92579    -1435.994    456.72938    401.36209    4.0166739     36976.26 
   70600    302.52538   -1452.6157     429.7675    342.43269    12.780087     36976.26 
   70700    304.76461   -1443.4495    454.55502    386.49189     82.19024     36976.26 
   70800    329.77939   -1435.3982    456.78534    509.66382    454.78201     36976.26 
   70900    300.68703   -1404.1297    449.88134    402.73608    201.51266     36976.26 
   71000    297.57633   -1409.1412    426.15307    359.95792   -122.20701     36976.26 
   71100    304.32567   -1425.7591    476.30299    423.94934    -38.64078     36976.26 
   71200    296.93914   -1453.8116    442.43566    328.69455   -226.00089     36976.26 
   71300    301.87155   -1418.2057    437.91262    382.03705   -10.362536     36976.26 
   71400    298.05018    -1424.845    456.97627     377.2157    109.75506     36976.26 
   71500     297.2043   -1421.4105    431.69039    351.54694   -18.495723     36976.26 
   71600    302.61793   -1472.1824    465.95923    359.47533   -296.53073     36976.26 
   71700     294.5873   -1473.4255     450.7274    306.75857   -437.47529     36976.26 
   71800    291.52406   -1432.7775    449.84377    332.69869   -12.421282     36976.26 
   71900    304.28819   -1419.3792    449.25293    403.11006    59.311282     36976.26 
   72000    301.60129   -1430.3281    461.08153    391.86387    1182.2373     36976.26 
   72100    296.54772   -1463.0007    444.16605    319.46931    516.59514     36976.26 
   72200    295.71907   -1481.3144    452.10908    305.35901    977.38453     36976.26 
   72300    290.41548    -1450.297    452.19323    312.52571    817.31134     36976.26 
   72400    300.43394   -1424.1259    453.00539    384.72176    754.62851     36976.26 
   72500    300.09687   -1402.3728    439.13427    391.08251    199.71951     36976.26 
   72600    306.26028   -1425.3517     439.7301    396.51465   -299.39445     36976.26 
   72700    292.73508   -1443.2882    453.79741    331.60694   -847.91504     36976.26 
   72800    293.07221   -1401.7174    453.79373    374.69551   -170.16178     36976.26 
   72900    304.81852   -1384.2561    427.12182    418.49538   -141.52469     36976.26 
   73000    310.01088   -1416.2108    451.09249    433.94421    262.43067     36976.26 
   73100    301.57622    -1417.643    452.85334     396.2077   -6.4329303     36976.26 
   73200     305.1773   -1460.1483    444.34254    361.44311     128.3468     36976.26 
   73300    298.94645   -1459.2273    449.11488    339.01686   -50.914691     36976.26 
   73400    295.82164   -1451.3334    466.97716    350.67098   -686.10171     36976.26 
   73500    309.29221    -1456.003    450.59003    390.40616   -273.25004     36976.26 
   73600    296.21526   -1458.0808     449.5776    328.30034    150.07947     36976.26 
   73700     301.0667   -1470.6192    459.96258    348.04124    121.39624     36976.26 
   73800    290.85074   -1452.0017    459.11504    319.70717    529.63266     36976.26 
   73900    304.96699   -1460.0514    475.46681    391.71503    428.10772     36976.26 
   74000     304.0597   -1452.6954    448.72977    368.23949    6.5836452     36976.26 
   74100    301.24389   -1425.6708    448.31743    382.14415   -117.94353     36976.26 
   74200    289.15598   -1444.3399    467.13383    327.73934   -67.986517     36976.26 
   74300    288.38328   -1422.9549    470.10121    348.60462   -260.12905     36976.26 
   74400     301.8013   -1412.8851    454.70498    403.83301   -613.74054     36976.26 
   74500    302.92323   -1383.9612    461.38716    444.50224   -676.03483     36976.26 
   74600    300.94362    -1414.384    462.60195    406.36041   -164.47691     36976.26 
   74700    291.88694   -1390.8997    474.33103    400.70148   -2.7437228     36976.26 
   74800    308.99605   -1410.7006    468.25227    452.03432    411.12148     36976.26 
   74900    295.41842   -1406.6961    443.03446    369.54589    399.79116     36976.26 
   75000    308.61874   -1368.8395    453.01636    476.95666     836.4415     36976.26 
   75100    296.50051   -1438.6161    450.40443    349.87923   -36.693313     36976.26 
   75200    297.57182   -1427.9047    453.00324    368.02427    351.76018     36976.26 
   75300    297.99255   -1433.4599    465.75084    377.11534    30.113311     36976.26 
   75400    294.56495   -1408.4841    452.86729    373.73899    36.811376     36976.26 
   75500    304.17048   -1413.1467    453.36004    412.91838   -153.76731     36976.26 
   75600    309.03733   -1399.1995    463.58724    459.05669   -353.97834     36976.26 
   75700    291.41311   -1415.7828    429.68083    329.02974   -707.69001     36976.26 
   75800    303.93023    -1385.911    437.54788    423.25777   -1002.6735     36976.26 
   75900    294.08216   -1399.7332    452.68582    380.12967   -701.99408     36976.26 
   76000    304.07854   -1388.6695     436.4886     420.1093    69.910009     36976.26 
   76100     300.1562   -1397.3346    474.26584    431.52005   -669.07214     36976.26 
   76200    302.28734   -1425.5111    462.39647    401.09199   -1022.6413     36976.26 
   76300    292.27646   -1453.9607    431.17336    296.24064   -622.33813     36976.26 
   76400    305.08936   -1421.9069    450.33383    405.27886   -424.61281     36976.26 
   76500    296.95233   -1413.3823    481.60935    408.35697    45.393654     36976.26 
   76600    303.87224   -1439.5886    463.90535    395.67591    147.95408     36976.26 
   76700    296.85756   -1480.3429    453.37968    312.73903    483.03999     36976.26 
   76800    301.24755   -1473.9065    463.20387    348.81143    677.52432     36976.26 
   76900    297.22954    -1418.629    471.15735    393.90929    969.01756     36976.26 
   77000    301.14919   -1399.7708    449.73806    409.03745    485.35219     36976.26 
   77100    292.17127    -1389.346    482.44125    411.64858    389.61109     36976.26 
   77200    305.17936   -1406.8286    475.62845    446.05792   -79.676607     36976.26 
   77300    298.14963   -1397.3553    438.43658    386.61454   -834.69899     36976.26 
   77400    295.41112   -1373.8967    477.89993    437.17781   -666.68578     36976.26 
   77500    294.09138   -1422.3081    450.25877    355.16929   -614.39594     36976.26 
   77600    296.11008   -1405.9762     458.8026     389.1553    -594.1383     36976.26 
   77700    304.07918   -1381.2054    485.75398    476.84159   -596.96985     36976.26 
   77800    298.38727   -1408.5283    462.25682     400.3343   -423.95658     36976.26 
   77900    308.39204   -1433.2148    433.48914    392.03116   -117.55147     36976.26 
   78000    286.41461   -1441.0359    446.62611    298.16401   -259.53558     36976.26 
   78100    298.21777   -1444.9822    455.53038    356.38904   -160.52727     36976.26 
   78200     305.2591   -1465.6387    466.74398    378.72325   -224.16491     36976.26 
   78300    304.00873   -1470.8992    453.93066    355.00657   -32.952759     36976.26 
   78400     307.3836   -1445.2722    448.35254    390.28607   -647.43281     36976.26 
   78500    294.49171   -1420.0728    474.05549    383.00805    138.64429     36976.26 
   78600     297.1559   -1442.1086    453.70879    352.64885    380.48922     36976.26 
   78700    293.80005   -1486.5972     478.9284    318.23509    654.24377     36976.26 
   78800    308.05157   -1454.4839    460.73277    396.46907    430.75518     36976.26 
   78900    306.85121   -1445.7909    482.80403     421.8162    344.92577     36976.26 
   79000    301.03467   -1439.6542    466.78912    385.68828    31.833254     36976.26 
   79100    304.55681   -1468.9152    462.59908    368.13249    173.16803     36976.26 
   79200    290.60405   -1493.3555    462.25005    280.37502   -132.61319     36976.26 
   79300    295.59621   -1438.0308    473.17938     369.1584    103.22232     36976.26 
   79400    307.77368   -1450.9006    452.03959    390.10511    28.690041     36976.26 
   79500    294.49411   -1456.0625    450.47876    323.45242   -477.62825     36976.26 
   79600    297.00769   -1455.4356    462.53863     347.4828   -163.21894     36976.26 
   79700    302.56988   -1415.2078    491.26799     441.5418     579.0769     36976.26 
   79800    299.53498   -1406.9916    484.24264    429.03636   -21.654347     36976.26 
   79900    313.28859   -1425.0197    463.08759    451.92254      61.9168     36976.26 
   80000    306.61536   -1388.0458    485.40945     481.1023    351.98872     36976.26 
   80100    299.36536    -1408.871    493.42739    435.57618    206.50891     36976.26 
   80200    304.90645   -1365.9457    483.65322    493.73396    390.53986     36976.26 
   80300    281.95361   -1364.9249    498.67084    406.18744   -255.26156     36976.26 
   80400    298.51123   -1431.1334    476.49105    392.52283   -46.713089     36976.26 
   80500    314.79366   -1387.1552    461.31093    494.80265    343.19926     36976.26 
   80600    299.56149   -1408.6219    464.46643    407.74946   -204.43854     36976.26 
   80700    298.48454    -1407.269    491.15268    430.92841    340.60219     36976.26 
   80800    310.63116   -1432.5761    467.17767    436.46333   -475.01433     36976.26 
   80900     296.8819   -1419.5508    487.13256    407.39381   -909.36485     36976.26 
   81000    306.78859   -1419.9346    457.37896    421.96487   -673.94713     36976.26 
   81100    305.36621   -1407.4446     469.3734    440.03014   -47.968916     36976.26 
   81200    296.10171   -1422.9975    467.41194    380.70565    224.05884     36976.26 
   81300    295.82654   -1404.0491    466.49707    397.49731   -235.93778     36976.26 
   81400    302.18175   -1455.0729    472.84529     381.5025    66.243263     36976.26 
   81500    304.36372   -1462.8041    461.93235    372.70535    71.110072     36976.26 
   81600     310.4318   -1451.5053    447.77897    397.23572    147.51987     36976.26 
   81700    307.50502   -1436.9928    453.22676    403.98762   -373.23234     36976.26 
   81800    296.23814   -1502.4749    474.13777    308.56967   -131.95948     36976.26 
   81900    296.45462   -1471.2612    461.23573    327.85837    -905.6656     36976.26 
   82000    304.05445    -1462.024    442.64855    352.80603   -764.20791     36976.26 
   82100    308.67577   -1466.1008    474.82974    401.76618   -973.18152     36976.26 
   82200    305.24495   -1471.5299      461.517    367.54124   -817.82465     36976.26 
   82300    300.23115   -1445.5238    467.30942    376.71274   -422.93328     36976.26 
   82400    301.53559   -1472.5982    466.22213    354.43787   -752.22155     36976.26 
   82500    306.02647   -1485.3522    486.55337    382.28227   -469.31399     36976.26 
   82600    295.05377   -1482.3375    455.43659    304.66096   -329.60652     36976.26 
   82700    292.74679   -1490.2712    470.53705    301.41641   -51.530875     36976.26 
   82800    310.54545   -1453.8922    471.29018    418.87292     39.72138     36976.26 
   82900    291.23555   -1448.9689    477.91726    343.27881   -33.209351     36976.26 
   83000    302.19156   -1463.9915    461.89519    361.67794    319.20497     36976.26 
   83100    292.50246   -1474.4205    467.91717    313.54459    593.99935     36976.26 
   83200    302.55518   -1495.3584     467.7795     337.8364    540.15642     36976.26 
   83300    293.78032   -1465.3142     475.4564    335.95709   -154.41695     36976.26 
   83400    310.50693   -1504.9872    460.01071    356.32461   -155.25271     36976.26 
   83500    296.17168   -1505.5728    460.16387    291.19795    73.744731     36976.26 
   83600    294.94716   -1514.5883    490.52732    307.01979     258.7441     36976.26 
   83700    298.01471   -1508.2675    461.30437    297.96133   -22.638364     36976.26 
   83800    295.10711    -1470.841    445.43623    306.39777    217.07797     36976.26 
   83900    307.61255   -1479.2978    462.18828    371.12945   -450.14445     36976.26 
   84000    291.31629   -1432.8754    484.10108    365.92056   -262.92756     36976.26 
   84100    304.33867   -1478.9304    500.21057    394.74426    184.38409     36976.26 
   84200     292.9543   -1458.8266    497.37563    360.63606    1032.7237     36976.26 
   84300    291.08784   -1425.1532    469.15901    357.66967    291.09268     36976.26 
   84400    304.62748   -1427.8167    465.28488    412.23566    1156.2496     36976.26 
   84500    298.35148   -1477.7544    457.61562    326.30548    593.81786     36976.26 
   84600     292.1757   -1449.6105    478.58419    347.54698   -453.95047     36976.26 
   84700     303.3631   -1448.6194     484.2583     404.7003   -751.16225     36976.26 
   84800    296.98799   -1436.1385    486.79041    390.94282   -586.01587     36976.26 
   84900    311.83838   -1440.6348    461.31583    427.99092   -339.98696     36976.26 
   85000    294.44978   -1460.6045    476.38084     344.6124    166.83857     36976.26 
   85100    300.16808   -1460.6379    470.35121    364.35575   -74.416266     36976.26 
   85200    297.55464   -1468.7053    451.01157     325.1544   -154.60453     36976.26 
   85300    303.19703   -1469.8088    455.76148    354.26468    146.56509     36976.26 
   85400    305.08106   -1474.0282    472.64887    375.43513   -306.36291     36976.26 
   85500    295.11611   -1504.1586    474.72222    302.40682    353.69611     36976.26 
   85600    307.25264   -1456.9399    485.32773    415.00252    267.56569     36976.26 
   85700    305.80002   -1424.6996    474.06631    429.42583    199.53869     36976.26 
   85800    305.56394   -1450.1188    462.46486    391.33977    618.28303     36976.26 
   85900    291.29781   -1457.4326    489.51511    346.69396    681.46173     36976.26 
   86000    295.38704   -1474.1539    452.86365    311.77562    472.90334     36976.26 
   86100     301.4473   -1490.8911    483.61613    353.14057    376.82243     36976.26 
   86200    305.76185   -1494.0289    461.63885    347.49675    471.42805     36976.26 
   86300    294.07114   -1459.5155    463.01274    330.62458    203.62772     36976.26 
   86400    294.93914   -1504.6515    466.42565    292.81869   -26.482262     36976.26 
   86500    301.62161   -1461.6155    483.77136    383.35801    1097.4146     36976.26 
   86600    302.43673   -1485.9228    478.68955    357.64745    337.50644     36976.26 
   86700    294.06274   -1471.4395    462.06468    317.71457    93.433864     36976.26 
   86800    290.41983   -1495.6551    481.93118    296.92524    603.37018     36976.26 
   86900    283.96793   -1463.1788    497.67559     316.0288     69.35024     36976.26 
   87000    297.73847    -1483.879    483.03591    342.83469   -79.749264     36976.26 
   87100    302.85722   -1464.9285    466.69696     368.5469    229.21514     36976.26 
[...]
  984500    300.44713   -1509.7429    505.95417    352.11307    312.39126     36976.26 
  984600    290.31791   -1496.5925    507.56277    321.15947    -360.5588     36976.26 
  984700    300.51903   -1514.6863    496.34891    337.88886   -277.60027     36976.26 
  984800    289.46217   -1502.1313    514.60106    318.79705    24.507845     36976.26 
  984900    305.12543   -1481.2316    491.37057    387.15366   -142.36769     36976.26 
  985000    298.52433   -1513.3503    473.91409    307.78809   -441.85965     36976.26 
  985100    299.96333   -1572.7526    475.04485    256.01072   -812.69532     36976.26 
  985200    301.11081   -1548.8146    465.29245    275.37482   -780.18963     36976.26 
  985300    306.17792   -1537.0725    496.48671    341.17875     18.96735     36976.26 
  985400     300.6997   -1554.0804    476.12702    279.08825   -438.26018     36976.26 
  985500    307.09137   -1565.2233    474.15028    294.81387   -264.75629     36976.26 
  985600     289.5125   -1528.1028    498.50466    276.95623    202.19089     36976.26 
  985700    300.98147   -1529.6367    479.57959    308.25608   -256.61011     36976.26 
  985800     301.5824   -1534.6733    493.47585    319.82781   -114.80318     36976.26 
  985900    301.39906   -1525.7407    490.99413    325.45119    73.347574     36976.26 
  986000    302.47237   -1534.7698    498.96894    329.24072       110.02     36976.26 
  986100    299.85622   -1565.0363    460.34981    248.54855    81.400685     36976.26 
  986200    298.30284    -1520.473    487.09552    312.84725    143.03001     36976.26 
  986300    302.91221   -1473.6039    530.12928    423.55197    97.754724     36976.26 
  986400    303.87429     -1510.43    498.36187    359.30023    224.96688     36976.26 
  986500    289.08448   -1522.6669    488.22651    270.18234    330.17179     36976.26 
  986600    292.99491   -1508.3446    493.97691    307.90259    465.37387     36976.26 
  986700    310.28519   -1499.5526    495.78735    396.53525   -110.75336     36976.26 
  986800    302.08427   -1470.2673    471.71739     364.7402   -18.295463     36976.26 
  986900    301.94662   -1480.3735    515.15787    397.45325    297.06098     36976.26 
  987000    301.81933   -1481.8027    493.48848    373.78022    251.84253     36976.26 
  987100    306.31747   -1501.6575    505.14749    385.88432   -85.616211     36976.26 
  987200     296.0428   -1514.4078    503.05104    324.66851   -453.61689     36976.26 
  987300     297.4607   -1499.5258    480.72474    323.62313   -97.161165     36976.26 
  987400    296.30095   -1501.4573    492.64748    328.38053   -256.70656     36976.26 
  987500    296.81773   -1475.2931    515.32031    379.54971   -414.36871     36976.26 
  987600    296.16264   -1502.2357    498.85669     333.1871   -68.019468     36976.26 
  987700    303.77602   -1526.7589    510.29093    354.45697   -116.91127     36976.26 
  987800    304.44647   -1549.8244    481.64486    305.77108    132.01861     36976.26 
  987900    302.01169    -1501.424    490.40963    351.94817    338.41876     36976.26 
  988000     303.5826   -1510.2394    516.10293    375.91551    309.36969     36976.26 
  988100    294.01373   -1490.8966    493.68497    329.65655    146.77567     36976.26 
  988200    305.54339   -1509.5529    472.49451    341.84255    103.02932     36976.26 
  988300    302.15501   -1556.9663    490.88141    297.52446     486.2105     36976.26 
  988400    298.14716   -1516.2755    501.04562    330.29225    305.88161     36976.26 
  988500    311.89389   -1485.7254    514.01726    435.85225    65.438523     36976.26 
  988600      302.321   -1444.6282    496.40657    416.13683    279.49702     36976.26 
  988700    296.55872   -1465.2989     518.8948    391.94952    66.954042     36976.26 
  988800    294.18231   -1477.3904    481.61257    331.85117   -123.45609     36976.26 
  988900    303.30092   -1473.4614    496.06428    391.38372   -228.88755     36976.26 
  989000    308.70294   -1453.8975    499.74344    439.00575   -253.18639     36976.26 
  989100    309.91446   -1470.7839    485.39488    413.23837   -453.37091     36976.26 
  989200    292.90452   -1485.3333    471.01683    307.54593   -504.29031     36976.26 
  989300    302.98868   -1497.5535    489.88758    359.70576   -611.53147     36976.26 
  989400    303.38581   -1499.2316    514.20695    384.13922   -603.50387     36976.26 
  989500    300.95983    -1514.576     506.1985    349.83807   -548.83744     36976.26 
  989600    295.05438   -1469.6211    502.26297    364.20649     186.1424     36976.26 
  989700    304.79609    -1475.269    502.83135    403.09076    139.49869     36976.26 
  989800    304.88799   -1504.5503    500.63092    372.02376   -42.071583     36976.26 
  989900    293.58817   -1529.4838    502.80036    298.26425   -161.14076     36976.26 
  990000    299.77846   -1548.1363    502.91971    307.66751   -806.31591     36976.26 
  990100    295.34301   -1521.1423    500.93797    312.66284   -800.68279     36976.26 
  990200    304.89327   -1472.4263    491.31815    394.85888   -647.93469     36976.26 
  990300    286.95027   -1485.2534    507.98446    317.72229   -505.60477     36976.26 
  990400    289.64913   -1513.9512    519.82464    313.04442     553.4094     36976.26 
  990500    295.69648   -1527.1184    505.08501    312.42894   -86.496188     36976.26 
  990600    306.85183   -1497.9221    492.97121    379.85495   -272.40296     36976.26 
  990700    306.53647   -1505.0088    499.94402    378.31789    417.90751     36976.26 
  990800    309.84743   -1515.5897    482.67253    365.40766     876.6386     36976.26 
  990900    293.42754   -1492.3099    502.03832    333.95122    323.15135     36976.26 
  991000    299.52803   -1543.8734    498.15544    306.03595     69.06915     36976.26 
  991100    308.17246   -1521.0277    490.20941    359.94751    36.185345     36976.26 
  991200    295.93377   -1551.3056    476.20426    260.43189   -89.981442     36976.26 
  991300    302.52579    -1549.293    495.48626    311.47596     78.06489     36976.26 
  991400    294.39264    -1549.168    490.90828    270.31847   -208.11085     36976.26 
  991500    305.45719   -1551.0653     503.5293    330.97589   -701.85761     36976.26 
  991600     310.7976   -1544.2074    488.34277    346.74833   -44.067655     36976.26 
  991700    300.97606    -1572.224    453.92141    239.98621   -77.519739     36976.26 
  991800    305.40355   -1564.8262    473.43317    286.87686     47.10212     36976.26 
  991900    291.98874   -1533.7851    479.09323    263.03763     60.28539     36976.26 
  992000    298.69774   -1521.4224    481.55409    308.13864    104.45005     36976.26 
  992100     306.9227   -1559.7414    493.88924    319.27357    106.82368     36976.26 
  992200    294.72139   -1494.7084    484.94479    320.29821   -181.94212     36976.26 
  992300    298.89902   -1508.5915    517.75058    358.07432   -274.13185     36976.26 
  992400    304.56616   -1502.7904    498.02774     369.7281   -470.47152     36976.26 
  992500      299.784   -1549.4063    491.46307    294.96586   -678.57911     36976.26 
  992600    294.21998     -1523.65    508.57576    312.72478   -458.90564     36976.26 
  992700    303.10528   -1483.7023    498.14818    382.34374   -299.82556     36976.26 
  992800    301.13358   -1470.2048    490.96199    379.75689   -486.13519     36976.26 
  992900    298.43377    -1477.252    539.38373    408.94732   -755.72524     36976.26 
  993000    298.92513   -1500.2106    482.60683     331.4293    -349.1907     36976.26 
  993100    292.16856    -1466.162    485.49096    337.86996   -195.83484     36976.26 
  993200    305.01062   -1451.4162    507.38517    432.46552    11.902517     36976.26 
  993300    300.06693   -1494.7876    518.61906    378.01744    -357.1477     36976.26 
  993400    297.69662    -1481.431    473.64657    335.70441    -833.5682     36976.26 
  993500    303.28116   -1470.3165    514.84304    413.21813   -922.95828     36976.26 
  993600    299.90505   -1493.6622    480.96516    340.75841   -606.81164     36976.26 
  993700    306.11452   -1450.9456    495.61143    426.14432    -510.5197     36976.26 
  993800    299.85273   -1458.2318    514.85606    409.84361   -250.04252     36976.26 
  993900    292.62776   -1517.1763     505.5015    308.93857    25.796814     36976.26 
  994000    300.38179   -1525.4386    509.29565    339.46397    729.76085     36976.26 
  994100    288.85905   -1491.1958    508.31104    320.72071    -43.94558     36976.26 
  994200    293.55075   -1441.7805    505.61764    388.61592   -119.84599     36976.26 
  994300    307.08856   -1490.0365     522.6491    418.48687    142.34961     36976.26 
  994400    290.69761   -1472.1772    511.10995    350.83543   -48.563863     36976.26 
  994500    298.57442   -1446.4841    518.60197    419.56822     344.9181     36976.26 
  994600    285.63303   -1467.4644    519.58158    341.16371    422.42424     36976.26 
  994700    309.20097   -1480.2718    509.17202    424.30763     475.4759     36976.26 
  994800    298.15889   -1476.3596    506.58168    375.79711    575.16803     36976.26 
  994900    302.94151   -1481.1538    481.72937    367.73438   -115.37587     36976.26 
  995000    306.37802   -1479.8169     502.1415    404.99215   -84.030402     36976.26 
  995100    310.75856     -1487.57    491.09463    405.96135   -149.80235     36976.26 
  995200     303.1591   -1447.2945    489.21728    410.06357    78.691777     36976.26 
  995300    300.04886   -1462.0881     526.6714    418.68774   -479.83128     36976.26 
  995400     318.0927    -1510.149    482.80097    408.18725   -23.870953     36976.26 
  995500     299.1097   -1470.2079    506.70621    386.36438   -108.49547     36976.26 
  995600    299.04812     -1457.76    496.19934    388.02748    61.831544     36976.26 
  995700    295.35977   -1487.1273    486.14915    331.96467    -76.03913     36976.26 
  995800    305.26993   -1499.4057    469.07568    347.33681   -706.54503     36976.26 
  995900     306.5007   -1480.2176    503.90534    406.90899   -243.91789     36976.26 
  996000    310.15594   -1504.1531    501.59302    397.15703   -110.29725     36976.26 
  996100    283.94603   -1494.0493    514.74133    302.12523    196.08533     36976.26 
  996200    305.74906   -1524.0105     488.6887    344.50732   -241.41171     36976.26 
  996300    291.03933   -1511.1304    504.82185    307.13638    88.192719     36976.26 
  996400    292.35176     -1502.73    514.49005    331.12793   -67.448774     36976.26 
  996500    304.51106   -1470.7833    509.61506    413.07381   -501.47318     36976.26 
  996600    292.73834   -1509.2909    494.01297    305.83456    29.492348     36976.26 
  996700    298.80881   -1497.4265     533.1724    384.25407    167.49158     36976.26 
  996800    292.67311   -1471.2218    504.48895    354.08519   -111.62357     36976.26 
  996900    292.85219   -1493.1628     519.2683    347.73176    220.75553     36976.26 
  997000    299.15763   -1509.6066    506.59021    347.06594      435.275     36976.26 
  997100    293.29663   -1541.8895    489.83944    271.58193    107.88106     36976.26 
  997200    300.80373   -1489.5054    535.35614    403.36187    808.12638     36976.26 
  997300    303.06353   -1466.1119    517.25946    418.85702    672.58457     36976.26 
  997400    302.90667    -1454.939    507.13723    419.19974     971.2281     36976.26 
  997500    303.36733   -1494.0018    494.18825    369.26692    519.11269     36976.26 
  997600    297.21446   -1476.6058    494.22079    358.92789    297.52949     36976.26 
  997700    306.26283    -1517.737    479.45685    343.86759    1.9852058     36976.26 
  997800    292.69598   -1523.1967    526.32205    324.04662    265.11669     36976.26 
  997900    315.29889   -1532.8564    488.31714    378.38775   -536.42044     36976.26 
  998000    298.30028   -1500.3712    484.00961    329.85158    15.902918     36976.26 
  998100    296.87072   -1504.2914    528.71319    364.18339   -25.382277     36976.26 
  998200    304.66227   -1530.3303    489.62495    334.21916    290.44338     36976.26 
  998300    303.73993   -1546.1134    507.34059    331.98925   -281.33016     36976.26 
  998400    301.04834   -1545.6204     510.4954    323.49009    498.65703     36976.26 
  998500    309.26266     -1549.39    474.85549    321.15126      474.577     36976.26 
  998600    299.26065   -1554.7223     502.6383    298.46323   -91.852003     36976.26 
  998700    292.99516   -1548.4325    510.86171    284.70064    -152.8812     36976.26 
  998800    295.08768   -1525.9816    495.55831    301.29157   -223.83884     36976.26 
  998900    297.37171   -1550.1822    517.01976    308.86014    451.99506     36976.26 
  999000    302.40511   -1533.5907    548.62298    379.77037    388.53613     36976.26 
  999100    303.78959   -1537.6281    481.35837    314.71636    834.08811     36976.26 
  999200    307.10736   -1538.5882     535.7486    383.11944    789.73298     36976.26 
  999300     294.0854   -1475.2723    503.74327    355.66266    596.96528     36976.26 
  999400    293.61339   -1444.9417    512.64977    392.76955    35.823864     36976.26 
  999500    307.65132   -1503.7029    493.95212    378.66313    250.85377     36976.26 
  999600    311.42548    -1469.237     511.2885      447.498    208.25039     36976.26 
  999700    299.76021   -1478.8755    515.29498    389.22126    21.290522     36976.26 
  999800    295.84234   -1455.7789    510.58866    389.93042   -424.97722     36976.26 
  999900    304.51269   -1508.4572    501.34222    367.13449   -723.02353     36976.26 
 1000000    293.66996   -1540.1112      510.056    295.26159   -539.43563     36976.26 
 1000100    308.56247    -1533.269    498.07386    357.33074   -700.70894     36976.26 
 1000200    307.65813   -1514.3376    513.44569    387.55276   -255.15295     36976.26 
 1000300    297.06323   -1505.4771    508.42879    343.58211   -47.669595     36976.26 
 1000400    306.17512   -1538.7371    494.46758    337.48242   -207.90718     36976.26 
 1000500    302.48981   -1510.3769    505.96742    360.71083    743.72065     36976.26 
 1000600    306.13028   -1526.3662    514.99462    370.17796    58.483889     36976.26 
 1000700    304.38247   -1530.5817    489.58576    332.66588    267.46905     36976.26 
 1000800    291.29048    -1535.036    477.71704    257.25934   -165.29773     36976.26 
 1000900     289.7494   -1502.9525    515.60272    320.27373   -160.58747     36976.26 
 1001000    297.64506   -1561.5134    505.77944    287.52227   -368.92386     36976.26 
 1001100     307.4157   -1499.5802    509.22485    396.99522   -309.69394     36976.26 
 1001200    297.15833   -1532.0483    513.45366      322.465   -53.672044     36976.26 
 1001300    293.56145   -1483.3744    491.70087    333.15351   -605.21012     36976.26 
 1001400    303.37984   -1509.5072    508.15959    367.78937   -294.86465     36976.26 
 1001500    294.87372   -1540.3926     511.7744    302.13109   -331.62289     36976.26 
 1001600    293.83112   -1538.7997     511.9591    299.20348    16.065312     36976.26 
 1001700    297.34367   -1577.4293     509.5586    274.02538    543.23491     36976.26 
 1001800    298.07261   -1566.5018    506.28378    284.96764    348.20348     36976.26 
 1001900    301.02341   -1536.2084     500.6612    322.95535    864.00442     36976.26 
 1002000    310.33544   -1548.0588    507.71659    360.18498     487.1716     36976.26 
 1002100    301.85335   -1532.5516    503.93283    333.62922     298.5097     36976.26 
 1002200    298.34401   -1516.3295    489.48663     319.5677    119.86835     36976.26 
 1002300    303.77308   -1530.2287    502.12315    342.80609   -40.020879     36976.26 
 1002400     308.6789    -1520.403    503.82936    376.47775   -743.77143     36976.26 
 1002500    294.39975   -1534.9845    495.86971    289.49555   -97.384406     36976.26 
 1002600     307.6255   -1544.5164    504.28252     348.0635   -106.93494     36976.26 
 1002700    302.14649   -1564.8577    475.08388    273.79705   -233.88406     36976.26 
 1002800    308.87919   -1514.6908    510.75164    390.01613   -242.09947     36976.26 
 1002900    313.48217   -1504.4527     501.6296    411.90514      114.436     36976.26 
 1003000    306.95043    -1561.966    503.17581    326.46068   -192.01778     36976.26 
 1003100    297.99463   -1557.3181    481.68574    269.20145   -119.98996     36976.26 
 1003200    294.02663   -1582.9633    500.08033    244.04343     279.9476     36976.26 
 1003300    294.78723   -1524.0829    488.19507    294.47112   -403.52034     36976.26 
 1003400    302.60872   -1531.4962    515.75525    349.91599   -109.14673     36976.26 
 1003500     308.0358   -1536.9887    487.72807    340.88839   -294.23908     36976.26 
 1003600    298.24796    -1528.797    499.20564    316.38569   -456.31386     36976.26 
 1003700    294.88608   -1490.8594    496.00192    335.94759   -371.49625     36976.26 
 1003800     302.6295   -1481.3104    521.63801    406.07833   -123.83012     36976.26 
 1003900    288.37619   -1505.3314    528.16238    324.25726    517.19479     36976.26 
 1004000    299.50034   -1532.2066    529.81411    349.23645    575.06187     36976.26 
 1004100    307.45273   -1533.0056    510.09869     364.6108    84.450229     36976.26 
 1004200    297.08924   -1492.3533    519.61311    368.00765    346.81909     36976.26 
 1004300    300.81756   -1543.1562    513.60233    328.01966   -363.96166     36976.26 
 1004400    301.00319   -1537.5647    517.77003    338.61664    191.75644     36976.26 
 1004500    294.58051   -1586.9783    476.37242    218.82022   -139.85237     36976.26 
 1004600    292.51034   -1526.1414    505.34941    299.29149   -292.28686     36976.26 
 1004700    304.03138   -1599.1709    495.44618    268.35266   -103.06478     36976.26 
 1004800    284.70314   -1541.7131    510.19743    253.33437    447.63624     36976.26 
 1004900    306.90081   -1553.1287    498.98111    330.87938    260.06707     36976.26 
 1005000    300.35485   -1547.5077    474.35348    282.33116   -316.14278     36976.26 
 1005100     304.1814   -1543.2309    515.65602    345.17944    489.14823     36976.26 
 1005181    306.10793   -1568.9378    508.31195    320.82288    305.99505     36976.26 
Loop time of 599.688 on 32 procs for 1000000 steps with 1515 atoms

Performance: 144.075 ns/day, 0.167 hours/ns, 1667.532 timesteps/s
100.0% CPU use with 32 MPI tasks x no OpenMP threads

MPI task timing breakdown:
Section |  min time  |  avg time  |  max time  |%varavg| %total
---------------------------------------------------------------
Pair    | 242.19     | 276.32     | 300.81     |  89.5 | 46.08
Bond    | 1.3955     | 1.5703     | 1.7045     |   5.2 |  0.26
Neigh   | 38.776     | 38.859     | 38.94      |   0.9 |  6.48
Comm    | 245.93     | 270.21     | 304.28     |  89.5 | 45.06
Output  | 0.39393    | 0.41147    | 0.89364    |  13.5 |  0.07
Modify  | 8.7293     | 9.13       | 9.4425     |   7.6 |  1.52
Other   |            | 3.186      |            |       |  0.53

Nlocal:        47.3438 ave          75 max          19 min
Histogram: 4 1 1 4 3 8 4 1 5 1
Nghost:        2009.09 ave        2036 max        1968 min
Histogram: 1 4 0 3 3 4 2 5 5 5
Neighs:        5344.16 ave        9585 max        1435 min
Histogram: 5 0 2 6 4 6 2 2 3 2

Total # of neighbors = 171013
Ave neighs/atom = 112.87987
Ave special neighs/atom = 2.0303630
Neighbor list builds = 49594
Dangerous builds = 0

# Output the system volume
variable v equal vol
print 'The system volume is $v'
The system volume is 36976.2597275424

# Outputs
variable A equal xhi-xlo
variable B equal yhi-ylo
variable C equal zhi-zlo
variable D equal xy
variable E equal xz
variable F equal yz
print 'Lattice vectors'
Lattice vectors
print '$A 0 0'
33.3150901579029 0 0
print '$D $B 0'
0 33.3150901579029 0
print '$E $F $C'
0 0 33.3150901579029
Total wall time: 0:10:04
