LAMMPS (29 Sep 2021 - Update 1)
Reading data file ...
  triclinic box = (0.0000000 0.0000000 0.0000000) to (15.000000 15.000000 15.000000) with tilt (0.0000000 0.0000000 0.0000000)
  2 by 4 by 4 MPI processor grid
  reading atoms ...
  1534 atoms
  scanning bonds ...
  3 = max bonds/atom
  scanning angles ...
  6 = max angles/atom
  scanning dihedrals ...
  10 = max dihedrals/atom
  scanning impropers ...
  1 = max impropers/atom
  reading bonds ...
  1033 bonds
  reading angles ...
  561 angles
  reading dihedrals ...
  82 dihedrals
  reading impropers ...
  2 impropers
Finding 1-2 1-3 1-4 neighbors ...
  special bond factors lj:    0        0        1       
  special bond factors coul:  0        0        1       
     4 = max # of 1-2 neighbors
     6 = max # of 1-3 neighbors
    10 = max # of special neighbors
  special bonds CPU = 0.002 seconds
  read_data CPU = 0.017 seconds
WARNING: Using 'neigh_modify every 1 delay 0 check yes' setting during minimization (../min.cpp:188)
Neighbor list info ...
  update every 1 steps, delay 0 steps, check yes
  max neighbors/atom: 10000, page size: 100000
  master list distance cutoff = 13
  ghost atom cutoff = 13
  binsize = 6.5, bins = 3 3 3
  3 neighbor lists, perpetual/occasional/extra = 3 0 0
  (1) pair hbond/dreiding/lj, perpetual, skip from (3)
      attributes: full, newton on
      pair build: skip
      stencil: none
      bin: none
  (2) pair lj/cut, perpetual, half/full from (3)
      attributes: half, newton on
      pair build: halffull/newton
      stencil: none
      bin: none
  (3) neighbor class addition, perpetual
      attributes: full, newton on
      pair build: full/bin
      stencil: full/bin/3d
      bin: standard
Setting up cg style minimization ...
  Unit style    : real
  Current step  : 0
WARNING: Energy due to 1 extra global DOFs will be included in minimizer energies
Per MPI rank memory allocation (min/avg/max) = 14.66 | 15.01 | 15.61 Mbytes
Step Temp E_pair E_mol TotEng Press Volume 
       0            0 3.2338163e+17    228.65382 3.2338163e+17 2.6280019e+19         3375 
    7336            0   -1367.0067    180.10982   -1186.8969    155.61785    29563.791 
Loop time of 6.22645 on 32 procs for 7336 steps with 1534 atoms

100.0% CPU use with 32 MPI tasks x no OpenMP threads

Minimization stats:
  Stopping criterion = energy tolerance
  Energy initial, next-to-last, final = 
    3.23381632251827e+17  -1186.40057325815  -1186.51496208751
  Force two-norm initial, final = 5.4481041e+19 128.92056
  Force max component initial, final = 2.8919236e+19 97.018550
  Final line search alpha, max atom move = 1.3630409e-05 0.0013224025
  Iterations, force evaluations = 7336 7338

MPI task timing breakdown:
Section |  min time  |  avg time  |  max time  |%varavg| %total
---------------------------------------------------------------
Pair    | 2.1432     | 3.3727     | 5.1263     |  46.2 | 54.17
Bond    | 0.010008   | 0.016923   | 0.036849   |   4.6 |  0.27
Neigh   | 0.099746   | 0.099994   | 0.10029    |   0.1 |  1.61
Comm    | 0.51881    | 2.2686     | 3.4913     |  56.3 | 36.43
Output  | 0          | 0          | 0          |   0.0 |  0.00
Modify  | 0          | 0          | 0          |   0.0 |  0.00
Other   |            | 0.4683     |            |       |  7.52

Nlocal:        47.9375 ave          63 max          33 min
Histogram: 3 4 5 1 4 1 1 5 4 4
Nghost:        2384.56 ave        2527 max        2270 min
Histogram: 1 4 6 4 6 2 3 3 2 1
Neighs:        6533.50 ave       10173 max        4536 min
Histogram: 8 5 4 1 2 5 3 2 1 1

Total # of neighbors = 209072
Ave neighs/atom = 136.29205
Ave special neighs/atom = 2.0782269
Neighbor list builds = 94
Dangerous builds = 0
1500 atoms in group WAT
34 atoms in group MOL
Neighbor list info ...
  update every 2 steps, delay 10 steps, check yes
  max neighbors/atom: 10000, page size: 100000
  master list distance cutoff = 13
  ghost atom cutoff = 13
  binsize = 6.5, bins = 5 5 5
  4 neighbor lists, perpetual/occasional/extra = 3 1 0
  (1) pair hbond/dreiding/lj, perpetual, skip from (4)
      attributes: full, newton on
      pair build: skip
      stencil: none
      bin: none
  (2) pair lj/cut, perpetual, half/full from (4)
      attributes: half, newton on
      pair build: halffull/newton
      stencil: none
      bin: none
  (3) compute group/group, occasional, copy from (2)
      attributes: half, newton on
      pair build: copy
      stencil: none
      bin: none
  (4) neighbor class addition, perpetual
      attributes: full, newton on
      pair build: full/bin
      stencil: full/bin/3d
      bin: standard
Setting up Verlet run ...
  Unit style    : real
  Current step  : 7336
  Time step     : 1
Per MPI rank memory allocation (min/avg/max) = 13.51 | 13.61 | 14.07 Mbytes
Step Temp E_pair E_mol TotEng Press Volume 
    7336          300   -1367.0067    180.10982    183.97764    2275.2985    29563.791 
    7400     297.1373   -1327.7442    248.88025    278.92925    2257.4917    29563.791 
    7500    298.16717   -1373.8286    232.05102     220.7217    639.62598    29563.791 
    7600    297.04927   -1365.3525    268.79589     260.8343    806.60067    29563.791 
    7700    292.35294   -1345.4358    257.26529    247.76014    435.10137    29563.791 
    7800    299.21899   -1358.9185    252.77584    261.16297    388.60575    29563.791 
    7900    297.70993   -1339.9704    275.26382    295.70335     434.1755    29563.791 
    8000    295.74941   -1337.0157    289.07766    303.51303   -48.649195    29563.791 
    8100    289.05646   -1316.4581    275.43588    279.84486    754.29687    29563.791 
    8200    298.36794   -1313.5487    264.25551    314.12352    1078.0046    29563.791 
    8300    302.54305   -1311.0576    281.09637    352.53399    1046.9922    29563.791 
    8400    301.65243   -1261.8211    278.81802    395.42232    1048.3124    29563.791 
    8500    311.79087   -1254.9501    285.42719    455.23096    645.37904    29563.791 
    8600    302.07294   -1303.6699    265.67563     342.3527    338.87232    29563.791 
    8700    304.51739   -1291.0848    267.94794    368.38026    750.57622    29563.791 
    8800    303.05021   -1346.8524    273.47313    311.43348    375.53566    29563.791 
    8900    298.69289   -1306.9642    273.38535    331.32279     476.0259    29563.791 
    9000    291.46183    -1338.671    285.66035    278.84808     825.5527    29563.791 
    9100    295.79943   -1371.5435     276.5002    256.63643     776.1304    29563.791 
    9200    301.82067    -1353.912    290.93688     316.2191    655.97318    29563.791 
    9300    300.96003   -1307.6843    274.95305    342.53022    861.84605    29563.791 
    9400    303.61033   -1301.2412    286.73564    372.86673    1275.7412    29563.791 
    9500    302.46697   -1329.2959    283.48873    336.34041    628.19999    29563.791 
    9600     304.7992   -1348.7064     284.4186    328.51707    811.75364    29563.791 
    9700     297.2527   -1305.6535    287.17351    339.84054    534.10402    29563.791 
    9800    296.84191   -1364.1851    278.51659    270.77487    667.97474    29563.791 
    9900    289.05989   -1308.7078    292.79708    304.97211    1446.5029    29563.791 
   10000    293.60699   -1344.5823    319.93051    317.00938    770.66196    29563.791 
   10100    303.88752   -1350.0805    296.87633    335.43469     417.0603    29563.791 
   10200    292.98499   -1396.3377    273.32915    215.81036    593.66737    29563.791 
   10300    302.34375    -1341.772    301.79278    341.60528    1068.3577    29563.791 
   10400    297.80075   -1322.4689    311.88195    350.23792    933.36851    29563.791 
   10500    307.21823   -1312.5722    290.53801    381.82466    944.06994    29563.791 
   10600     297.7372   -1344.0652    292.01288    308.48218    33.568568    29563.791 
   10700    304.16081   -1370.9235    291.19541    310.15966    88.288353    29563.791 
   10800    305.11778   -1386.4532    287.03214     294.8396    798.95926    29563.791 
   10900    310.05926   -1398.8717    286.49086    304.46031   -109.87661    29563.791 
   11000    301.43586   -1348.0437    311.37334    340.76547    1.9808696    29563.791 
   11100    272.05502   -1331.8943    318.24957    229.53292    33.640134    29563.791 
   11200    305.39038   -1348.4017    312.00477    359.10938    19.995159    29563.791 
   11300    306.84176   -1333.6874    309.51383    377.96498    78.825222    29563.791 
   11400    303.08173   -1336.3976    322.43375    370.99293   -336.94167    29563.791 
   11500    297.88259   -1336.3086    317.83458    342.72485    376.10178    29563.791 
   11600    295.68315   -1342.9358    327.41507    335.62765    494.67937    29563.791 
   11700    299.37921   -1359.2334    321.64676    330.45116    132.16267    29563.791 
   11800    299.27357   -1406.3831    319.29216    280.46415    656.89465    29563.791 
   11900    302.28282   -1413.5717    337.61976    305.35412   -12.708903    29563.791 
   12000     303.4352   -1360.0317    320.64444    347.18468    506.29607    29563.791 
   12100    298.70109   -1373.4101    321.51692    313.04586     197.8149    29563.791 
   12200    299.37056   -1332.2501    313.87802    349.62615    322.65724    29563.791 
   12300     302.8741   -1354.3362    327.59548    357.26728    709.53203    29563.791 
   12400    299.87102   -1342.1153    333.29868    361.46852    175.74067    29563.791 
   12500    291.66743   -1335.3659    327.94807    325.38033      947.645    29563.791 
   12600    298.90423   -1372.4257    336.07263    329.51426    268.33757    29563.791 
   12700    306.97121   -1401.9297    335.62133    336.42165    352.09832    29563.791 
   12800    294.65246   -1364.4198    321.06827    303.08701    522.60199    29563.791 
   12900    303.91343   -1358.7514    333.76474    363.77066    659.23824    29563.791 
   13000    297.70204   -1365.1678    331.15101    326.35705    617.69148    29563.791 
   13100    296.30352   -1342.0009    335.83978      347.822    1043.9176    29563.791 
   13200     292.1964   -1321.0009    334.95758    349.17204     711.4321    29563.791 
   13300    297.80418   -1365.7324    333.90259    329.01076    281.29938    29563.791 
   13400    291.30402   -1363.1029    352.04357    320.07821    313.42145    29563.791 
   13500    300.16111   -1340.8609    378.36848    409.11828    311.23798    29563.791 
   13600    312.11665   -1399.9318    333.22572    359.53651   -19.764129    29563.791 
   13700    301.11842   -1364.5588     326.0222    337.44869     684.6814    29563.791 
   13800    302.52561   -1366.6787     334.7186    350.45539    567.20135    29563.791 
   13900    304.83809   -1346.5702    349.13743     395.5498    716.27128    29563.791 
   14000    304.87974   -1404.5781     341.5589    330.15376    503.16772    29563.791 
   14100    303.33974   -1368.1496     334.4669    352.45309    477.33095    29563.791 
   14200     302.9781   -1345.4471    364.73639    403.77249    617.41141    29563.791 
   14300    298.54303   -1335.6621    360.40004    388.95474    682.75512    29563.791 
   14400    294.85795     -1396.83    342.47563    293.02317    254.51651    29563.791 
   14500    303.57367    -1388.714    365.07349    363.56425     484.0796    29563.791 
   14600    305.38044   -1375.2608    346.69184    366.89196    832.39557    29563.791 
   14700    294.18184   -1377.2702    343.10921    310.12701    407.62846    29563.791 
   14800     303.9489   -1384.7146    372.47573    376.68048    467.06997    29563.791 
   14900    297.24875   -1403.3244    351.11448    306.09257    578.25169    29563.791 
   15000    291.90212   -1373.4813     362.4533    322.84265    419.41702    29563.791 
   15100    298.47655   -1408.3766    354.03866    309.57505    1176.8932    29563.791 
   15200    308.60179   -1376.8946    367.00076    400.28727    1223.4527    29563.791 
   15300    302.08141   -1388.0385    350.41405    342.76133    957.65354    29563.791 
   15400    289.69315   -1375.4604    356.91327    305.22941    1397.0595    29563.791 
   15500    300.37666   -1325.6343    366.18288    413.14429    1344.8606    29563.791 
   15600    292.43036   -1392.8928    356.78421    300.17583    1464.0046    29563.791 
   15700     289.3487   -1367.4447    342.36327    297.12115    968.59968    29563.791 
   15800    312.14154   -1396.3186    372.81148    402.84919    948.23402    29563.791 
   15900    300.36019   -1370.5382    359.58462    361.56688    471.77298    29563.791 
   16000     299.0508    -1354.074    375.91811    388.38127     830.3583    29563.791 
   16100    296.89312   -1323.7191    357.05109    390.00937   -67.857872    29563.791 
   16200    296.97054   -1397.6207    344.59222     304.0027    55.575109    29563.791 
   16300    301.11253   -1370.8324    375.04061    380.16655   -238.67939    29563.791 
   16400    299.04567   -1396.3948    356.34368    326.46253   -101.88932    29563.791 
   16500    308.87004   -1364.2198     354.1145    401.30162     347.5902    29563.791 
   16600    288.46473    -1373.763    348.26828    292.66844    -427.6572    29563.791 
   16700    297.43694   -1360.6553     376.5255    375.03259    185.56478    29563.791 
   16800    296.59838   -1354.0213    355.88333    357.19254    260.79779    29563.791 
   16900    295.63533   -1351.5756    342.46571    341.81992   -137.49089    29563.791 
   17000    295.56332   -1372.7822    360.62328    338.44189   -725.47379    29563.791 
   17100    298.24591   -1348.0145    357.30798    372.15254   -704.45839    29563.791 
   17200     301.2386    -1358.266    357.04979    375.31825    26.535789    29563.791 
   17300    300.78615   -1368.3882    366.49668    372.57535   -639.82872    29563.791 
   17400     304.7441   -1367.7097    374.73853    399.58194   -351.82709    29563.791 
   17500    294.35552   -1345.5368    386.77408    386.31891   -364.73054    29563.791 
   17600     299.8729   -1402.5189    363.92919    331.70406   -312.47392    29563.791 
   17700    301.61791   -1391.0115    356.54172    343.79793    429.18196    29563.791 
   17800    302.23237    -1389.815    376.94613    368.20663   -315.40517    29563.791 
   17900    297.45251   -1401.3659    359.56114    317.42885    -474.0098    29563.791 
   18000    299.42023   -1402.5558    343.77192    309.44131    361.08353    29563.791 
   18100    302.18174   -1415.2036    347.04855     312.6892    406.82003    29563.791 
   18200    302.52173   -1406.9105     354.3203    329.80758    320.83716    29563.791 
   18300    308.65182   -1411.0382    373.38183     372.7534    598.22763    29563.791 
   18400     297.6368   -1410.7991    347.42397    296.70056    500.75846    29563.791 
   18500    293.30647   -1328.8228    346.86352     358.3286    -33.15886    29563.791 
   18600    303.79013   -1369.2052    383.33777    402.32638   -117.02402    29563.791 
   18700    291.81096   -1400.3938    348.82856    281.88884    43.165473    29563.791 
   18800    312.03738   -1401.8066    361.96273    386.03652   -104.03919    29563.791 
   18900    305.67231   -1389.8956    378.74953    385.64857    254.91017    29563.791 
   19000    293.80891   -1355.2697    363.93534    351.24948    135.75899    29563.791 
   19100    292.63573   -1320.5225    375.39968    392.10006    262.75694    29563.791 
   19200    310.39243   -1402.5212    378.61823    394.46064    625.38867    29563.791 
   19300    298.34053   -1397.4637    378.97831    344.80612    947.22979    29563.791 
   19400    291.39534   -1389.3066    386.45291     328.7011    656.40367    29563.791 
   19500    291.68732   -1369.0269    380.92663     344.7888    1155.0442    29563.791 
   19600    310.42414   -1370.1481    364.00742    412.36785     983.4933    29563.791 
   19700    298.83736   -1415.5317    359.81883    309.84891    775.98104    29563.791 
   19800    305.15713   -1406.3119    372.88956    361.01817    844.46741    29563.791 
   19900    305.55834   -1431.2631    375.36714    340.37782    850.06629    29563.791 
   20000    310.89367   -1430.1958    373.74996     364.2082    659.35083    29563.791 
   20100    302.12335   -1365.2577    389.02717    404.34679    -24.68438    29563.791 
   20200    293.79404   -1413.1645    370.65949    300.01085    456.80024    29563.791 
   20300    305.43288   -1400.0973     389.2713    384.87455   -103.29199    29563.791 
   20400    292.94207    -1361.887    370.98058    347.71629   -149.72277    29563.791 
   20500    295.40674   -1432.5428    399.49096    316.83341   -156.57255    29563.791 
   20600    293.57377   -1404.5569     409.0298    345.98227    941.70518    29563.791 
   20700    306.20906   -1422.4577    391.80131    368.59094    80.547861    29563.791 
   20800    298.21974   -1425.8437     377.7039    314.59974    511.87244    29563.791 
   20900    298.34895   -1438.0266    381.37021    306.67357    692.08187    29563.791 
   21000    299.94025   -1426.3178    374.04332      318.327     550.1173    29563.791 
   21100    299.97805   -1434.5509    397.05568    333.27903    323.49972    29563.791 
   21200    298.97458    -1380.017    401.24782     387.4196    606.27318    29563.791 
   21300    298.45932   -1402.0377     359.0017    320.79824    79.776305    29563.791 
   21400    303.04331    -1403.471    386.99355    368.30375    422.77011    29563.791 
   21500    298.25487   -1419.6507     370.9197    314.16906    310.82624    29563.791 
   21600    299.84954   -1422.1362    403.28764    351.33847    374.37673    29563.791 
   21700    296.57611   -1334.2669    401.44576    422.40768    825.41462    29563.791 
   21800    295.78402   -1410.6523     384.2652    325.22215    1063.5485    29563.791 
   21900    306.18202   -1380.5208    381.18572     399.7887    767.80601    29563.791 
   22000    302.86198    -1376.389    397.54841    405.11198    459.16767    29563.791 
   22100    297.27621   -1396.6409    386.71761    348.50471    337.95778    29563.791 
   22200    287.16779   -1431.1929    400.97022    282.01398    962.24475    29563.791 
   22300    302.81895   -1417.7593    380.27447    346.27115    203.25358    29563.791 
   22400    297.49651   -1451.0019    392.25983    300.69257   -386.08465    29563.791 
   22500    295.32135   -1449.2881    402.33244    302.53946   -208.30978    29563.791 
   22600    297.83656   -1430.2713    388.37383    319.09108    -20.51496    29563.791 
   22700    300.19843   -1403.4322    394.89548    363.24455    195.19633    29563.791 
   22800    307.79362    -1442.647    400.99738    364.83849    1329.0808    29563.791 
   22900    311.60256   -1423.2845    373.18559    373.79453    855.61298    29563.791 
   23000    298.98501   -1430.6397    400.81988    336.41665    1.2157873    29563.791 
   23100    305.39225   -1426.4516    400.36193    369.42521    144.68356    29563.791 
   23200    309.47222   -1376.0786    409.92665    448.00674    285.50409    29563.791 
   23300    299.10599    -1403.692    410.08681    373.18412    76.967816    29563.791 
   23400    302.43214   -1379.4197    385.84054    388.40924    122.60408    29563.791 
   23500    303.51755   -1367.6832    401.54742    420.81255    684.19952    29563.791 
   23600     305.2132   -1404.8216    382.20908    372.08412    330.89806    29563.791 
   23700    294.91395   -1414.1207    392.55716    326.06992    1124.0098    29563.791 
   23800     309.2562    -1398.743    389.82487    404.25336    579.80418    29563.791 
   23900    302.23184   -1395.8912    386.15624    371.33815    533.92672    29563.791 
   24000    305.17301   -1419.5366    387.53602    362.51241    136.95011    29563.791 
   24100     308.0073   -1400.4968    396.22298    403.19074    463.80307    29563.791 
   24200    290.66444   -1377.0771    411.52901    362.66682   -56.288033    29563.791 
   24300    311.24171   -1416.2455    391.86068    397.85961   -9.2225357    29563.791 
   24400     295.1155   -1419.1367    395.82654    325.24427   -224.85675    29563.791 
   24500    294.28168   -1460.3587    385.08608    269.47157   -317.88763    29563.791 
   24600    281.22822   -1423.5604    397.00487     258.5398    93.457559    29563.791 
   24700    298.59438   -1420.8696    388.74936    332.33122     816.5834    29563.791 
   24800    301.44728   -1441.8644    381.57457    317.19814   -415.15923    29563.791 
   24900    302.35619   -1386.3449    403.50787    398.80434    255.70506    29563.791 
   25000     300.1803   -1418.5531    405.78395    358.92931    703.33596    29563.791 
   25100    307.88424   -1411.6012    397.71559    393.01656   -44.479438    29563.791 
   25200    292.14266   -1444.4979    405.37094    295.84288   -228.54555    29563.791 
   25300    299.61713   -1414.7003     396.4681    350.89275    223.68518    29563.791 
   25400    299.16569   -1411.3339    408.64177    364.36995     263.4272    29563.791 
   25500     311.1641   -1527.1333    398.64073    293.39725    755.47932    29563.791 
   25600     304.4772   -1431.4667    431.62737    391.49416    540.88787    29563.791 
   25700    307.28164   -1419.7217    415.01245    399.43932    963.77782    29563.791 
   25800    294.48818   -1429.5712    407.56187    323.67847    395.37793    29563.791 
   25900    301.87994   -1477.2546    391.29811    293.50861    644.29294    29563.791 
   26000    304.77987   -1446.2796    416.73791    363.17481    306.90588    29563.791 
   26100    299.65155   -1418.6496    421.00299     371.6357    318.24464    29563.791 
   26200    293.44095   -1398.6324    402.86955    345.13956    301.49995    29563.791 
   26300    302.01582   -1479.7111    398.43782    298.81276     196.3673    29563.791 
   26400    294.72278   -1510.6079    384.96313    221.11514    626.80078    29563.791 
   26500    303.62324   -1441.5933    402.37784    348.21572    524.02053    29563.791 
   26600    305.55721   -1475.3997    418.41272    339.28171     181.9519    29563.791 
   26700    298.03511    -1449.524    416.41317    328.78504    827.73806    29563.791 
   26800    308.85005    -1521.293    400.13783    290.16038   -580.44654    29563.791 
   26900    301.62732   -1440.3261    431.55018    369.53484   -214.46653    29563.791 
   27000    303.56426   -1442.9362    405.50389    349.72937    -130.8824    29563.791 
   27100    301.66029   -1436.5551    403.44667    345.35292    409.02168    29563.791 
   27200    299.35588   -1463.2129    411.92874    316.64706   -203.79154    29563.791 
   27300    292.61704   -1447.8299    423.68918    312.99674    244.89619    29563.791 
   27400    300.26025   -1432.6897    421.74538     361.1195    92.980577    29563.791 
   27500    289.41399   -1420.1852    412.65191    314.96756    807.07749    29563.791 
   27600     300.1341   -1461.6039     422.8679    332.75138    453.89873    29563.791 
   27700     289.1607   -1452.1123    429.23385      298.465    1244.8405    29563.791 
   27800    309.72808   -1458.7865    400.10328    356.64456    560.47979    29563.791 
   27900    294.99311   -1450.0807    425.63669     323.5512    347.92425    29563.791 
   28000    303.71109   -1453.8362    400.74066    334.73711    360.89609    29563.791 
   28100    303.51774   -1445.1565    406.89054    348.68316    120.04783    29563.791 
   28200    302.95542   -1420.0601    421.35221    385.67173    -170.5645    29563.791 
   28300    303.02194    -1451.391    425.42815    358.72071   -270.59312    29563.791 
   28400    300.53505   -1482.3345     419.9927    310.97766   -347.12574    29563.791 
   28500    296.66294   -1494.6096    444.00756    305.02354   -3.5806262    29563.791 
   28600    297.09048   -1481.6032    411.51411    287.49012     277.9883    29563.791 
   28700    299.22664    -1445.332    424.20627    346.21486    638.93409    29563.791 
   28800    308.87242   -1408.3518    426.98528    430.05129    989.48562    29563.791 
   28900     292.0442   -1479.0877    416.84398    272.27613     639.6124    29563.791 
   29000    300.85539   -1506.1491    419.42091    288.05513    269.50547    29563.791 
   29100     294.7024   -1499.4893    427.91493    275.09232    46.770078    29563.791 
   29200    289.93852   -1464.2896    395.52137     256.1296    448.86119    29563.791 
   29300    310.53226   -1417.7828    428.28768    429.50745     894.7295    29563.791 
   29400     302.6722    -1428.455    439.95675    394.58716    416.97356    29563.791 
   29500    311.02178   -1434.4094    416.35943    403.18952    930.67579    29563.791 
   29600    294.10683   -1465.9919    454.74115     332.6945   -104.98431    29563.791 
   29700    295.05894   -1395.5283    417.15348    369.92118    920.68014    29563.791 
   29800    300.36825   -1425.2129     423.4229    370.76729    351.77743    29563.791 
   29900    294.55154   -1427.3557    435.40047    354.02212    661.67641    29563.791 
   30000    293.82142   -1478.3414    420.45554    284.75512   -117.10281    29563.791 
   30100    295.65085   -1472.8977    419.10854    297.21159     631.3616    29563.791 
   30200    298.80735   -1512.7225    414.98297    267.68513    -326.5346    29563.791 
   30300     301.8521   -1517.4972    431.12867    292.96928   -816.92737    29563.791 
   30400    309.45591   -1452.3211     388.1456    349.90858   -68.818896    29563.791 
   30500    294.08293   -1437.8291    422.25145    328.25833   -614.02781    29563.791 
   30600    297.43037   -1443.6845    419.35763    334.80553   -177.64532    29563.791 
   30700    298.60255   -1509.6038    430.58147    285.46645    366.68995    29563.791 
   30800     298.4712   -1503.6343    432.25952    292.51376   -477.68132    29563.791 
   30900    293.19227   -1508.1347    418.09548    249.72684   -48.201638    29563.791 
   31000    302.24836   -1475.1945    445.93958    351.89369    191.03033    29563.791 
   31100    302.66001   -1466.4388    448.49174    365.08263    28.505903    29563.791 
   31200    308.39906   -1447.9679     420.2749    381.56167    884.73814    29563.791 
   31300    300.62718   -1481.7694    427.50333    319.47438    296.64944    29563.791 
   31400    309.02204   -1465.9909    439.97187    386.08247    272.96864    29563.791 
   31500    304.34186   -1422.3937     418.9148    387.23614   -397.76536    29563.791 
   31600    301.17969    -1436.048    456.93624    397.15347   -585.74258    29563.791 
   31700      291.142   -1413.5352     440.4138    357.27582   -210.76549    29563.791 
   31800    296.19103   -1416.0069    433.26883    370.73107   -177.09959    29563.791 
   31900    301.70942    -1406.493    441.28732    413.48013    238.45418    29563.791 
   32000    302.07013   -1401.7424    451.49617    430.08798    484.60183    29563.791 
   32100    293.84731   -1408.0345    420.51832    355.24317    1042.5712    29563.791 
   32200    301.47863   -1432.5893    446.58011    391.62204    1140.2885    29563.791 
   32300    304.54091   -1426.9323    443.35077    408.04304    618.89251    29563.791 
   32400    306.63731   -1463.1913    441.44307    379.45602    688.05549    29563.791 
   32500    291.43126   -1465.2528     421.3082    287.77438    386.67428    29563.791 
   32600    306.72232   -1484.1493    432.79668    350.24005    1338.2666    29563.791 
   32700    299.84738   -1511.8946    435.64041    293.92292    402.02124    29563.791 
   32800    303.20517   -1485.5847    416.43957    316.37566    667.76681    29563.791 
   32900    301.19596   -1487.7658    425.42529    313.99907     -47.9821    29563.791 
   33000    299.68653   -1466.6868    430.26124    333.01652    435.63851    29563.791 
   33100    298.97102   -1444.6005    421.87275     343.4448    485.69064    29563.791 
   33200    306.65139   -1462.2784    439.66374      378.654    924.33827    29563.791 
   33300    299.25358   -1453.5102    434.90049    348.85398    827.25565    29563.791 
   33400     298.4723   -1424.4831    443.51693    382.92741    455.85554    29563.791 
   33500    302.96074   -1445.3827    424.78117    363.80235    775.41062    29563.791 
   33600    303.86051   -1484.5892     435.9123    339.83857    81.921961    29563.791 
   33700     288.6042   -1442.3946    425.48681     301.8927    585.30418    29563.791 
   33800     296.8564   -1459.6722    438.42213    335.25956   -363.93528    29563.791 
   33900    296.46782   -1427.4817    429.80529    357.05756   -160.71373    29563.791 
   34000    308.27511   -1442.1682    406.12543    372.64553   -208.40368    29563.791 
   34100    293.71112   -1455.0425    427.02711    314.12163   -136.27725    29563.791 
   34200    310.46485   -1398.6555    434.09337    454.13244    321.18488    29563.791 
   34300    302.09608   -1453.2161    436.08899    363.32564    234.02872    29563.791 
   34400    297.83636    -1406.434    454.68854    409.24214    1143.7282    29563.791 
   34500    292.15476   -1488.8377    430.18529    276.37267    121.50108    29563.791 
   34600    303.26154    -1474.784     434.4848    345.47916    190.82345    29563.791 
   34700    301.65588   -1443.0724    428.57458    363.94339    323.15358    29563.791 
   34800    298.44507   -1487.0631    407.78514    284.49119    795.59342    29563.791 
   34900    292.10861   -1470.0419    397.59727     262.3696    433.23366    29563.791 
   35000    295.50823   -1465.2832    421.80214    306.86798    636.08584    29563.791 
   35100    299.35544   -1462.0339     445.7857    351.68098    824.76938    29563.791 
   35200    290.53607   -1511.8772    468.00954    283.76063    1159.8581    29563.791 
   35300    302.57416   -1495.5127    442.88545    330.01009    848.68749    29563.791 
   35400    308.17909   -1503.4091    449.75011    354.59057     927.9571    29563.791 
   35500    301.13015   -1487.2345    428.79754    317.60183    747.85283    29563.791 
   35600    302.85046   -1446.8343    431.78181    368.84752    683.44166    29563.791 
   35700    298.55222   -1434.0249    450.62281    380.85667     486.8985    29563.791 
   35800    308.68469   -1450.6662    426.69337    386.58715    822.81876    29563.791 
   35900     287.6885   -1473.0255    453.60818    295.19879   -78.605825    29563.791 
   36000    299.69795   -1458.8128    430.62425    341.30576    224.35214    29563.791 
   36100    301.09353   -1457.5192    444.61256    362.96485    29.537738    29563.791 
   36200    309.38976   -1413.9828    454.56907    454.36803    465.85926    29563.791 
   36300    297.47148   -1427.5681    455.61169    387.36385    -435.8524    29563.791 
   36400    312.42703   -1412.1844    442.69681    458.17326   -606.46164    29563.791 
   36500    297.08356   -1420.8312    439.36047    376.07691   -276.01533    29563.791 
   36600    297.23517   -1463.0272    428.83607    324.04934   -294.05628    29563.791 
   36700    301.97084   -1482.4146    434.34699    331.81281    221.38785    29563.791 
   36800    292.27168   -1453.5639    440.59603    322.59147    755.91547    29563.791 
   36900    296.06011   -1480.2448    448.15716    320.78328    310.91205    29563.791 
   37000    309.05802   -1452.2609    437.54904    397.55406    651.22881    29563.791 
   37100    288.90743    -1477.214    463.02537    305.99754    341.16392    29563.791 
   37200    295.89638   -1511.5206    447.09618    287.69824    275.10267    29563.791 
   37300    298.65418   -1476.2955    446.70789    335.13711    356.32505    29563.791 
   37400    299.98609   -1483.2332    439.62284    327.20063   -348.05305    29563.791 
   37500    294.96977   -1521.9829    449.65422    275.55981   -462.84168    29563.791 
   37600    294.97395    -1481.619    442.00529    308.29383    436.61322    29563.791 
   37700    297.38826   -1463.1085    459.10167    354.93315    410.09773    29563.791 
   37800    302.57746   -1467.8742    445.93519    360.71348    9.6531047    29563.791 
   37900    309.49874   -1462.9455    447.87818    399.21245    56.132099    29563.791 
   38000    309.80425   -1443.6455    452.11766    424.14804    703.63977    29563.791 
   38100    307.35731    -1449.017     455.2209     410.6983    543.27349    29563.791 
   38200    286.64428   -1448.1757    442.26729    303.93606    -239.3086    29563.791 
   38300    307.99824   -1436.0918    477.33468    448.66604    432.12502    29563.791 
   38400    294.52702   -1435.5386    494.77412    405.10084    80.865603    29563.791 
   38500    300.64208   -1429.4537    444.20943    388.56428    450.39985    29563.791 
   38600    292.67511    -1385.189     490.8776    443.09151    278.14945    29563.791 
   38700    294.24433   -1444.9618    460.44639    360.05807    505.38629    29563.791 
   38800    296.08144   -1455.9261    465.36373    362.40601    438.28042    29563.791 
   38900    306.62294   -1459.9963    448.71362    389.85593    1288.5854    29563.791 
   39000    300.12652   -1498.0648    460.62014    334.00799    1107.1274    29563.791 
   39100    302.58977   -1507.2574    473.23027    348.68157    256.04338    29563.791 
   39200    307.44475   -1469.7701    476.28355    411.40741    921.32765    29563.791 
   39300    301.37525   -1515.5611    472.42634    334.02413    432.66949    29563.791 
   39400    302.08222   -1505.6528    427.73431    302.47089    532.94848    29563.791 
   39500    303.15721   -1507.0503    429.47263    307.72396   -154.64523    29563.791 
   39600    313.74869   -1476.6319    439.00429    396.07273   -444.34849    29563.791 
   39700     299.6082   -1473.4637     427.0656    322.68604   -659.77294    29563.791 
   39800    307.71172   -1528.3403    445.37222    323.14582    -68.10995    29563.791 
   39900    305.93702   -1521.2089    439.61985    316.41519   -639.83177    29563.791 
   40000     297.4894   -1530.1011    455.68479    284.98587   -391.97318    29563.791 
   40100    292.60557    -1547.128    443.71467    233.67171   -35.660721    29563.791 
   40200    294.13461   -1498.3245    470.97285    316.72053     332.0021    29563.791 
   40300    310.48554    -1496.353    444.02833    366.46445   -39.818941    29563.791 
   40400    297.66482   -1449.9172    452.25543      362.542    58.594908    29563.791 
   40500    290.07339   -1449.7488    468.07029    343.83556    513.88089    29563.791 
   40600    289.18074    -1456.584    450.22206    315.07313    6.2040886    29563.791 
   40700    308.14401   -1519.3226    434.31865    323.08534    419.65162    29563.791 
   40800    292.08587   -1467.6166    460.48852    327.58221   -162.01745    29563.791 
   40900    297.59921   -1465.7847    443.33433    337.45354    304.51677    29563.791 
   41000     296.1476   -1449.7082     456.6437    360.20619   -18.503685    29563.791 
   41100     288.8686   -1466.4346    450.06288    303.63696   -518.76562    29563.791 
   41200    296.30234   -1516.6958    447.40689    284.68894   -489.97691    29563.791 
   41300    299.93526   -1509.0381     443.8536    305.39418   -140.49326    29563.791 
   41400    298.12524   -1480.9657    475.72231    357.06426   -289.89229    29563.791 
   41500    305.11716   -1473.2088    479.02347    400.07254   -86.787687    29563.791 
   41600    294.23338   -1508.8473    462.65938     298.3356   -533.34084    29563.791 
   41700    312.17872   -1489.3903    456.69736    393.83328    443.82307    29563.791 
   41800    294.09707   -1502.5075    475.30701    316.70011   -564.50834    29563.791 
   41900    299.61253   -1456.8691    449.22429    361.45919    66.157831    29563.791 
   42000    313.42665   -1406.9182    472.35134    497.66191    384.58646    29563.791 
   42100    291.15867   -1468.3415    471.30444    333.43627     444.1454    29563.791 
   42200    297.73486   -1466.0109     481.8086    376.32145    256.18515    29563.791 
   42300    289.44244   -1477.4165    469.16762    314.38197    431.05389    29563.791 
   42400    294.64112    -1477.974    447.88775    316.30042    251.64882    29563.791 
   42500     298.4126   -1473.6585    475.08091    365.04317    186.97729    29563.791 
   42600    298.17215   -1504.9219    465.42546    323.02558    683.79435    29563.791 
   42700    313.41238   -1493.0938    454.25668    393.32635    382.23847    29563.791 
   42800    308.01308   -1484.6622    459.53608    382.36487   -233.87233    29563.791 
   42900    296.97058   -1421.7132    467.93629    403.25445     172.8734    29563.791 
   43000    288.25422   -1437.6593    462.83747    342.37943    155.31559    29563.791 
   43100    287.56995   -1484.2061     436.2328    266.10109    246.46114    29563.791 
   43200     291.0294   -1505.8795     476.5463    300.54946   -602.03463    29563.791 
   43300    298.70957   -1533.1947    451.38781    283.17087   -317.38211    29563.791 
   43400      314.848   -1522.6891    445.69654     361.7311    601.18503    29563.791 
   43500    306.74427   -1462.0268    479.46901    419.13525    307.70628    29563.791 
   43600    299.83095   -1521.5806    455.38944    303.91086   -32.373218    29563.791 
   43700    299.48188   -1486.6965    445.61762    327.42806   -182.26445    29563.791 
   43800    297.53887   -1485.2907    462.41602    336.75357    9.5717806    29563.791 
   43900    305.85668   -1483.4654    465.46357    379.63527    26.498141    29563.791 
   44000    295.74389   -1465.5718    456.80486    342.65895   -225.41245    29563.791 
   44100    300.23354   -1479.3459     468.7575    361.35329    406.85194    29563.791 
   44200      312.642   -1460.5651    478.23964    446.31771    632.03951    29563.791 
   44300    298.76536   -1458.9767    468.34839    374.60443    604.76187    29563.791 
   44400    306.54358     -1493.56    469.29718    376.51316    344.82854    29563.791 
   44500    291.21855    -1471.939    439.85489    298.66291   -89.375986    29563.791 
   44600    302.87373   -1490.8223    439.06955    332.25353   -255.20251    29563.791 
   44700    295.67376   -1491.4418    455.51339    315.17705    14.385337    29563.791 
   44800    297.73672   -1453.4087    458.57239      365.696     29.11491    29563.791 
   44900    295.16016   -1541.6182    433.54519    240.68546     334.7658    29563.791 
   45000     298.5771   -1522.4138    469.52368    311.48241    315.54238    29563.791 
   45100    291.40216   -1508.2019    449.11012    272.49423    330.88575    29563.791 
   45200    303.36518   -1581.3688    439.46053    244.34375    4.6794414    29563.791 
   45300    292.04016   -1542.1395    439.36518    231.72701     569.9401    29563.791 
   45400    294.40846   -1497.2421    430.27353    278.35499    794.87459    29563.791 
   45500    296.66245   -1531.1189    453.79495    278.29936    436.09429    29563.791 
   45600    299.31755   -1495.3505    460.77607    333.18156    669.84801    29563.791 
   45700    306.54739   -1487.4235    457.05571    370.42561    237.02098    29563.791 
   45800    288.75645   -1513.1078    478.58726    284.97572    793.92484    29563.791 
   45900    300.47012   -1511.5837    465.36039    326.79953    439.46707    29563.791 
   46000    291.46081   -1514.5037    460.76639    278.11667   -62.872598    29563.791 
   46100    301.44303   -1461.3606    447.66078    363.76882   -460.05584    29563.791 
   46200    294.06543   -1482.4338    437.21149    298.53371   -129.61701    29563.791 
   46300    293.92104   -1488.3754    450.82866     305.5495   -270.71137    29563.791 
   46400    298.15283   -1481.9688    452.05862    332.52356    -214.6677    29563.791 
   46500    295.05605   -1482.8363    465.65267    331.09911   -83.809387    29563.791 
   46600    294.20043   -1488.7123    463.29915    318.95977    277.13215    29563.791 
   46700    303.23394   -1459.2577    443.56135    369.95598    1344.0353    29563.791 
   46800    309.78738   -1448.4655    458.25411    425.38743    1067.6254    29563.791 
   46900    291.47611   -1450.5928    469.59504    350.92617    961.46456    29563.791 
   47000    298.90846   -1469.4729    467.53686    363.95065     379.9889    29563.791 
   47100    297.62729   -1439.3801    473.67109    394.32323    815.16195    29563.791 
   47200    312.36238   -1437.8607    467.45034    456.95509    684.52653    29563.791 
   47300    307.76235   -1446.4485    470.44955    430.34632    296.25449    29563.791 
   47400    296.80783   -1489.5184    427.62915    294.39848    669.94231    29563.791 
   47500    289.23215   -1529.7647     468.3832    260.28848    872.83362    29563.791 
   47600     299.4505   -1505.5334    453.43414    316.26428    802.58917    29563.791 
   47700    297.82304   -1507.8138    444.96615    298.07908    783.17136    29563.791 
   47800    293.57322   -1493.9044    479.25095     326.8534    426.94253    29563.791 
   47900    293.36491   -1514.5192    460.22236    286.25811    192.93987    29563.791 
   48000    305.14754    -1511.529    446.58733      329.455    334.12606    29563.791 
   48100    309.50498   -1531.2987    443.91361    326.92321    552.33058    29563.791 
   48200    308.76359   -1543.4662    446.78302    314.23734    734.23149    29563.791 
   48300    299.07276   -1528.2968    466.97441    305.31508    260.88465    29563.791 
   48400     306.5905   -1485.1155     466.6464    382.52129    -244.4053    29563.791 
   48500    306.73608   -1494.8867    475.43541     382.2043    -231.0708    29563.791 
   48600    309.13454   -1508.0493    449.24831    353.81462     751.8615    29563.791 
   48700    300.34677   -1498.0586    475.24881    349.64936    1047.1526    29563.791 
   48800    306.73238   -1520.2602     456.5688    337.94733    571.61331    29563.791 
   48900    299.18026   -1504.3892    467.01852    329.75797   -301.77106    29563.791 
   49000    317.44016   -1488.7809    438.65053    400.43841    677.18161    29563.791 
   49100    296.38386   -1476.2025    494.34611    372.49392   -68.344663    29563.791 
   49200    301.48193    -1509.277    438.36651    306.73585    661.12112    29563.791 
   49300    295.36673   -1490.7469    447.35785    306.31338    753.98216    29563.791 
   49400    295.00437   -1465.2868    445.71629    328.47603    589.01949    29563.791 
   49500    304.51195   -1461.2862    448.97483    379.18095    1353.7844    29563.791 
   49600    298.37054   -1469.3491    466.53334    360.61283    697.42338    29563.791 
   49700    309.15966   -1468.2845    472.81863     417.2645    321.91383    29563.791 
   49800    290.03101   -1454.9242    480.19203    350.58826    840.20597    29563.791 
   49900    304.45617   -1477.7582    466.85953     380.3387    808.02883    29563.791 
   50000     301.2642   -1466.7808    478.32041    388.19102    101.06147    29563.791 
   50100    293.78981    -1452.968    478.26096    367.78951    352.13623    29563.791 
   50200    302.00149   -1460.4237    452.01136    371.60816   -54.523694    29563.791 
   50300     302.8864   -1433.9967    497.37918    447.44665   -624.00863    29563.791 
   50400    292.46191   -1471.6999    468.06547    332.79418   -22.146865    29563.791 
   50500    294.58228   -1498.6429    454.05533    301.53025   -239.13717    29563.791 
   50600    299.53652   -1532.6993    437.64301    273.70038   -149.96618    29563.791 
   50700     299.9379    -1513.603    471.70714    328.69487    -27.63101    29563.791 
   50800    306.19389   -1526.5028    473.27865    345.95386    257.73673    29563.791 
   50900    308.23491   -1542.7448    499.36719    365.12705    83.736822    29563.791 
   51000    303.46374   -1507.9425    453.62813    332.38799   -344.17177    29563.791 
   51100    290.61798   -1545.3138    470.48783    253.17674    411.39325    29563.791 
   51200    291.80993   -1483.2687    477.09177    327.27238    305.44143    29563.791 
   51300    291.79116    -1534.768    490.13895    288.73456    375.48464    29563.791 
   51400     307.2466   -1511.5804    455.35038    347.75847     183.7419    29563.791 
   51500    287.21647   -1455.7766    477.23235     333.9149   -20.097729    29563.791 
   51600    299.78768   -1486.3755    488.23957    371.76836    11.110523    29563.791 
   51700    296.63987   -1535.5954     467.9703    287.89508   -43.330063    29563.791 
   51800    296.75216   -1534.7709    444.27902    265.54141    323.92417    29563.791 
   51900    304.55212   -1570.6549    492.81023    313.83114    -574.7779    29563.791 
   52000    294.79232   -1558.1925    476.82098    265.70615    450.38572    29563.791 
   52100    299.36315   -1545.1743    454.41288    277.20301    584.89472    29563.791 
   52200    290.04548   -1520.9718    454.78734    259.20208    791.25111    29563.791 
   52300    304.94128   -1564.5022     461.5183    290.47023    603.98176    29563.791 
   52400    304.59769   -1545.4846    471.97254    318.37194    724.71312    29563.791 
   52500    297.05839   -1555.8027    467.45046    269.08033    848.54893    29563.791 
   52600    303.63441   -1549.5974    478.97566    316.86054    636.18712    29563.791 
   52700    298.66046   -1537.7595    459.85011      286.844    683.12441    29563.791 
   52800    298.08242   -1510.7338    476.79685    328.17502    880.50402    29563.791 
   52900    299.67011   -1517.0074      439.787    292.14664     679.5333    29563.791 
   53000    310.49604   -1536.3291    493.20264    375.71064    789.11878    29563.791 
   53100    302.68215   -1553.9597    504.15047    333.32163    1082.2832    29563.791 
   53200    307.03384   -1532.7688    495.10391    365.35135    1357.7032    29563.791 
   53300    293.46177   -1508.6387    476.03379    308.39268    876.67783    29563.791 
   53400    306.54968    -1506.428     449.0365    343.41231    408.36243    29563.791 
   53500    291.85872    -1517.594     457.8408    273.91908   -623.06385    29563.791 
   53600    294.10379   -1510.3925    481.62999    315.16881   -466.60117    29563.791 
   53700    293.78437   -1470.0991    480.65918    353.03183    -344.3658    29563.791 
   53800      296.426    -1484.624    481.78669    351.70551   -319.31079    29563.791 
   53900    300.12808   -1523.5078    470.81336    318.76537    581.67799    29563.791 
   54000    306.80792   -1515.2623    487.44423    374.16579    645.58771    29563.791 
   54100     294.3665   -1536.2405    474.07601    282.96732    1132.2881    29563.791 
   54200    296.35435    -1554.683    477.39048    276.92289    517.29489    29563.791 
   54300    289.92587   -1550.9236    490.81199    264.72838   -8.0490236    29563.791 
   54400    300.44433   -1538.5399    468.44326    302.80834    539.47752    29563.791 
   54500    294.41918   -1512.7888    455.21228    287.79606   -39.568808    29563.791 
   54600    292.08632   -1541.2145    475.33579    268.83361   -707.85091    29563.791 
   54700    315.02442   -1536.8321    480.96467    383.66242   -177.36759    29563.791 
   54800    301.38262    -1493.435    459.50656    343.26413    465.30261    29563.791 
   54900    301.42056   -1518.4057    481.73103    340.69125    470.70601    29563.791 
   55000    307.89573   -1506.0831    485.73994    386.61155    475.74983    29563.791 
   55100    307.86683   -1535.2802    476.31325    347.85569    252.60216    29563.791 
   55200    310.83606   -1522.7739    460.67155    358.28845    331.97331    29563.791 
   55300    303.71973    -1571.798    471.65323    287.72735    2.9680338    29563.791 
   55400    299.71965   -1500.7477    487.50556     356.3513    -22.08947    29563.791 
   55500    300.19984   -1518.5059     469.9917    323.27347    77.846838    29563.791 
   55600    298.61909   -1568.8792    488.30115    283.98631   -272.67433    29563.791 
   55700    297.97467    -1517.398    489.66909    333.89065    135.89656    29563.791 
   55800    296.71107   -1489.3619    476.88615    343.36972    97.968249    29563.791 
   55900    300.50694   -1515.8601    481.71629    339.04727   -201.79675    29563.791 
   56000     298.6725   -1518.3483    455.57156    302.03171    430.19135    29563.791 
   56100     309.9528   -1509.5507    501.19617    408.00016    12.947252    29563.791 
   56200    295.51673   -1519.8758    511.62796    342.14009    161.41288    29563.791 
   56300    305.03579   -1516.3808    466.76404    344.26917    43.742208    29563.791 
   56400    308.59834   -1506.8119    484.33547    387.68892   -29.805805    29563.791 
   56500    300.52617   -1497.4993    469.20627    344.98587   -465.41179    29563.791 
   56600    302.91396   -1540.8483    485.57603    328.91781   -359.20943    29563.791 
   56700    297.75448   -1556.0808    496.22347    300.75613    148.71853    29563.791 
   56800    301.43776    -1477.113    474.28695    374.61845   -8.0225823    29563.791 
   56900    299.23772   -1503.4626    493.98068     357.9093   -46.547719    29563.791 
   57000    300.54803   -1530.9445    476.98038    319.41476   -444.81262    29563.791 
   57100     296.9664   -1530.5697    486.05339    312.49599   -1257.4412    29563.791 
   57200    293.65135   -1485.5606    489.17582    345.47908    330.73533    29563.791 
   57300    299.21357   -1512.1355    494.28386    349.42928    672.81793    29563.791 
   57400    294.50692   -1534.0348    482.05916    293.79788     1588.407    29563.791 
   57500    295.25375    -1543.323    470.50445    276.36762    653.06681    29563.791 
   57600    292.90663   -1537.2816    477.58753    278.76676    256.40199    29563.791 
   57700    308.39561   -1561.1946    500.01166    348.05602    613.44636    29563.791 
   57800    298.43827   -1541.6078    492.81674    314.94704    90.706429    29563.791 
   57900    296.43833   -1551.4397    504.97491    308.13437    757.86457    29563.791 
   58000    292.07113   -1553.1743    501.17646    282.64507    501.48182    29563.791 
   58100    312.58025   -1585.8431    469.44569    311.96363    644.69375    29563.791 
   58200    290.82964    -1566.629    478.41147    240.75227   -188.39168    29563.791 
   58300    288.91706    -1596.717    467.09451    190.60765    -147.5295    29563.791 
   58400    293.75535   -1567.5744    479.10374    253.86845    460.33963    29563.791 
   58500    300.01394   -1530.6641    474.59598    314.87019   -136.01761    29563.791 
   58600     301.1769   -1561.3331     494.0216    308.94093   -246.81685    29563.791 
   58700      296.505   -1521.2907    502.61515    336.22837    600.80345    29563.791 
   58800    309.15456   -1554.1789    501.89948    360.42765    103.02232    29563.791 
   58900    296.23188   -1567.6865    474.33653    260.30583    685.35916    29563.791 
   59000    292.65656   -1524.7336    478.76064    291.34516    780.76311    29563.791 
   59100    307.94889   -1538.7766    463.82406    332.24516    12.794042    29563.791 
   59200    306.66228   -1514.0581    485.25988    372.52019    335.66182    29563.791 
   59300    287.23017   -1484.9033    504.77038    332.38881   -177.51004    29563.791 
   59400    304.19381   -1493.5425    484.48668    380.98268   -132.05433    29563.791 
   59500    301.66456   -1507.5085    500.12268    371.09508    382.89106    29563.791 
   59600    297.17822   -1491.9757    501.88296     367.8875     -125.045    29563.791 
   59700    295.07108   -1517.7807    482.63852    313.20923    357.79229    29563.791 
   59800    311.85922   -1537.2064    479.82138    367.68119    303.04218    29563.791 
   59900    294.73642   -1504.2063    491.93131    334.54716    617.74681    29563.791 
   60000     311.5733   -1544.7321    492.54509    371.57267    666.27411    29563.791 
   60100    287.13206   -1539.2392    500.35817    273.19242    441.25135    29563.791 
   60200    303.62043   -1580.6154    494.23325    301.03621    1013.7939    29563.791 
   60300    302.71293   -1591.9137    487.64812    279.00589    680.88437    29563.791 
   60400    296.30824   -1568.2713    485.03918    270.77269    659.62956    29563.791 
   60500    296.25529   -1573.2643    491.37538    271.87387    15.159071    29563.791 
   60600     297.0939   -1552.0598    484.88238    290.41746   -47.444479    29563.791 
   60700    307.78097   -1569.6952    490.83502    327.57016   -251.89529    29563.791 
   60800     298.8095   -1610.4898    459.81928    214.76395   -91.096272    29563.791 
   60900    284.17663   -1615.2214    475.54701    158.89395      24.3873    29563.791 
   61000    295.70417   -1626.4604    490.10611    214.89011    624.14144    29563.791 
   61100    303.97712   -1568.0245    480.84569    301.86946     1016.329    29563.791 
   61200    298.18459   -1540.4411    499.89183    322.02957    1080.8641    29563.791 
   61300    303.09231   -1623.7148    503.57171      264.862    1063.1118    29563.791 
   61400    296.35662   -1561.7697    496.64583    289.10194    900.17059    29563.791 
   61500    309.12676   -1571.1926    473.70718    315.09457    921.30674    29563.791 
   61600     293.0255   -1560.0695    508.72646    287.66097    1513.6203    29563.791 
   61700    296.78844   -1579.2686    493.93818    270.86864    578.28969    29563.791 
   61800    294.46951   -1535.6401    508.20045    318.16289    709.40788    29563.791 
   61900    294.58859   -1544.4727     485.4251    287.09905   -121.19569    29563.791 
   62000    304.06025    -1531.406    484.72341    342.74556     116.2145    29563.791 
   62100    306.67171   -1603.0891    492.62009    290.89246    482.95797    29563.791 
   62200    292.27593    -1553.205    502.70176    285.07548   -203.86269    29563.791 
   62300    292.18993   -1580.2247    476.85767    231.81871   -70.760559    29563.791 
   62400    293.98892   -1578.2851    472.65732     237.7786   -458.26342    29563.791 
   62500    297.96108   -1557.4642    485.81066    289.90401    434.45935    29563.791 
   62600     299.3492   -1553.4405    460.39293    274.85308    917.15443    29563.791 
   62700    301.42907   -1591.8586    493.40002    278.94624   -24.895633    29563.791 
   62800    308.03482   -1601.5043    518.58347    324.66949    544.00584    29563.791 
   62900    299.20108   -1568.2034    523.94556    322.96599     508.2486    29563.791 
   63000    304.19409   -1606.3924    511.53949    295.18687    568.27786    29563.791 
   63100    299.88622   -1609.0217    484.19073    245.52363      798.947    29563.791 
   63200    290.78449   -1584.7074    506.41555    250.47166    125.10547    29563.791 
   63300    306.01911   -1559.4514    501.65934    340.58724    493.76786    29563.791 
   63400    300.48534    -1551.974    505.40109    326.51944     599.7708    29563.791 
   63500    298.80234   -1551.7418    487.23659    300.89646    597.36916    29563.791 
   63600     299.6828   -1556.8832    487.86684    300.40868    115.00932    29563.791 
   63700    295.75563     -1541.25    483.80238    294.03195   -537.82489    29563.791 
   63800    307.01754   -1574.6605    459.85272    288.13399    172.89744    29563.791 
   63900     307.7192   -1508.8975    477.67086    374.92145   -154.71768    29563.791 
   64000    302.12096   -1531.4814      490.695    339.78004   -604.07442    29563.791 
   64100    302.84516   -1541.4535    501.65719    344.07942    -587.6847    29563.791 
   64200    293.96779   -1527.5585    485.46881     301.2202   -284.47014    29563.791 
   64300    308.57119   -1517.3523    513.27892    405.96788    271.74594    29563.791 
   64400    307.15805   -1518.7992    510.47699     395.2616    266.95604    29563.791 
   64500    294.96378   -1521.4433    513.74732    340.16512    1127.0926    29563.791 
   64600    291.14439   -1551.9767    516.69889    295.13027   -16.372289    29563.791 
   64700    293.63475   -1588.2933    474.86214    228.35688    54.396448    29563.791 
   64800    301.77452   -1606.6096    473.19479    245.56855   -150.94702    29563.791 
   64900    299.86461   -1601.9929     483.5517    251.81464   -618.17551    29563.791 
   65000    298.37833   -1545.1245     513.1984    331.53808   -472.46725    29563.791 
   65100     302.3301   -1552.7802     511.4762    340.21808    778.62056    29563.791 
   65200    317.17588   -1503.0522    529.33236    475.64129     810.9138    29563.791 
   65300    295.41993   -1500.7313    516.74433    365.95858    898.97373    29563.791 
   65400    294.53464   -1456.2976    511.55209    401.15459    329.99617    29563.791 
   65500    301.87985   -1565.4112    492.89893    306.95237   -555.99312    29563.791 
   65600    299.24423    -1544.141    489.20954    312.48953   -35.119691    29563.791 
   65700    295.70422    -1567.334    492.07506     275.9857    248.85914    29563.791 
   65800    294.48858   -1554.2235    458.60739    250.07358   -60.213065    29563.791 
   65900     302.1487   -1585.0681    490.19464    285.81973   -398.13819    29563.791 
   66000    312.16735   -1575.9885    512.30343    362.78918    26.094127    29563.791 
   66100    309.92796   -1529.4244     480.5761     367.3929    734.06186    29563.791 
   66200    300.87987    -1545.631    476.38919    305.65341   -271.00327    29563.791 
   66300    292.75869     -1573.22    512.93373     277.4985   -973.79251    29563.791 
   66400    303.52275   -1596.6907    497.12506    287.40637   -1388.9246    29563.791 
   66500    302.70563   -1561.1814    502.49882    324.55555   -79.967869    29563.791 
   66600     305.2504   -1561.4658    486.60663    320.00749   -605.13119    29563.791 
   66700    304.77707   -1590.8987    486.09646    287.90149    8.5768141    29563.791 
   66800    288.39076   -1592.4552     492.0469    217.41684   -226.96518    29563.791 
   66900    292.54909   -1526.9233    504.06805    313.97174    817.91689    29563.791 
   67000    301.39362   -1558.7413    518.99826    337.49977    676.92431    29563.791 
   67100    295.25993   -1532.9046    487.40871    303.71848    57.922456    29563.791 
   67200    291.99131   -1567.3896    494.41839    261.30699    34.796334    29563.791 
   67300    299.58585   -1544.3019    495.50454    320.18462   -130.34276    29563.791 
   67400    300.47276   -1575.6705    504.10202    301.46632   -44.485624    29563.791 
   67500    298.75873   -1575.8677    542.48423    331.81903    52.527436    29563.791 
   67600     284.9353   -1615.1969    479.14157    165.97978   -884.70719    29563.791 
   67700    299.91428   -1582.6215    482.78301    270.64437    460.41337    29563.791 
   67800    303.44826   -1630.6968    527.91811    283.85298    207.19034    29563.791 
   67900    305.43692   -1614.6818    473.22697    254.26412    220.53635    29563.791 
   68000    301.15294   -1626.1594    529.47471    279.45833    759.50863    29563.791 
   68100    319.08534   -1615.3835     460.8374    303.54044    956.20363    29563.791 
   68200    302.34732   -1628.3534    487.68313     240.9305    1364.4089    29563.791 
   68300    307.68119    -1521.022    500.24331    385.19565    632.41159    29563.791 
   68400    306.06995   -1561.0931    491.59837    329.11695    524.65128    29563.791 
   68500      298.183   -1621.8545    508.78276    249.49982    675.55701    29563.791 
   68600     306.2205   -1579.1838    511.61263    331.72848    -155.0148    29563.791 
   68700    302.77859   -1585.9848    487.33793    284.92473   -937.26398    29563.791 
   68800    306.23193   -1626.2288    471.65438    244.77739    102.97107    29563.791 
   68900    299.30105    -1598.696    482.19101    251.17561   -322.88231    29563.791 
   69000    302.72817   -1576.0765    478.61868    285.88334   -339.52781    29563.791 
   69100    299.57318   -1556.6704    504.38839    316.64218   -526.62985    29563.791 
   69200      301.222   -1601.8918    513.44494    288.01167   -174.78475    29563.791 
   69300    300.52007   -1571.3105    506.56206    308.50264   -574.61872    29563.791 
   69400    293.20918   -1578.1034    494.85303    256.59299   -806.80173    29563.791 
   69500    294.24879   -1571.4107    500.96775    274.15094   -350.74371    29563.791 
   69600    291.41081   -1539.0131    505.22405    297.83652   -106.15501    29563.791 
   69700    290.39298    -1551.098    509.13601    285.01246    129.10339    29563.791 
   69800     307.5241   -1577.6104    495.40244    323.04855       608.78    29563.791 
   69900    303.44779   -1556.6842     492.2131    322.15843    46.676907    29563.791 
   70000    300.77564   -1550.6495    474.71512    298.48454    422.97046    29563.791 
   70100     304.1227   -1574.9257    498.34882    313.13666     282.4108    29563.791 
   70200    312.99548   -1570.1055    506.71624    366.86919   -389.06381    29563.791 
   70300     305.9576   -1564.7322    477.17723    310.54335    166.89192    29563.791 
   70400     290.3673   -1574.3048    492.92671    245.47901    49.992183    29563.791 
   70500    310.81585    -1564.295    499.67358    355.67705    761.31152    29563.791 
   70600    292.79892   -1576.7726    505.44182    266.63787   -48.293027    29563.791 
   70700    299.73444   -1550.3244    512.69788    332.03451    938.48436    29563.791 
   70800    297.39606   -1594.0951    490.39091    255.27145    652.45996    29563.791 
   70900    294.54493   -1531.5331    509.15689    323.57097    923.12235    29563.791 
   71000      295.463   -1554.7117    522.16255    317.59326    1990.4902    29563.791 
   71100    306.60493   -1528.5005    506.97788     379.5337    789.54044    29563.791 
   71200    298.43403   -1508.4616    527.19978    382.45693    525.74595    29563.791 
   71300    289.87205   -1535.8944    532.11267    320.81237    840.26181    29563.791 
   71400    306.34806    -1545.354     513.8442    368.37278    604.77666    29563.791 
   71500    303.92592    -1561.007    475.83414     303.6415   -27.652857    29563.791 
   71600    303.21549   -1514.2171    500.95818    372.30903   -655.36655    29563.791 
   71700    294.88897   -1550.1399    524.20234    321.58176   -80.333304    29563.791 
   71800    295.81364   -1547.5518    535.12193    339.31473   -603.80787    29563.791 
   71900     300.3171   -1514.2354    527.55813    385.64631    68.289206    29563.791 
   72000    301.40905   -1543.0121    500.67184    334.97304    449.70244    29563.791 
   72100    296.23678     -1491.45     487.2851    349.51326   -127.73828    29563.791 
   72200    300.54528   -1544.7811    533.58732     362.1725    -525.8092    29563.791 
   72300    304.79481   -1560.8809    523.39042    355.29435    696.05007    29563.791 
   72400    288.06841   -1568.8362    526.37989    273.89587   -175.81869    29563.791 
   72500    303.29178   -1537.1934    505.48782    354.21102    380.62285    29563.791 
   72600    304.44572    -1538.885     514.2837    366.58836    726.18094    29563.791 
   72700    302.17181   -1532.2257    525.69166    374.26477     752.3521    29563.791 
   72800    294.92915   -1513.2491    516.88612    351.33992    313.20329    29563.791 
   72900    302.19336   -1551.3938    504.26959    333.77303    631.27786    29563.791 
   73000    293.01143   -1534.2667    508.27367    312.94669    384.87152    29563.791 
   73100    307.98158   -1536.6081    495.83006    366.56895    842.10407    29563.791 
   73200    303.32431   -1555.5157     492.7797     323.3292    -107.1892    29563.791 
   73300    304.76991   -1537.2041    512.42266    367.88964      666.322    29563.791 
   73400    295.04316   -1577.9225    491.94645    262.24782   -508.87272    29563.791 
   73500    292.52061    -1582.013    514.49977    269.18365   -589.80957    29563.791 
   73600    293.23899   -1578.6407     511.2391    272.57798   -470.54304    29563.791 
   73700    294.85389   -1567.8654    513.52347      293.017   -364.35329    29563.791 
   73800    299.95016   -1556.4805    504.01732    318.18358    222.00694    29563.791 
   73900    307.59631   -1575.2729    482.60118    312.91478   -383.38553    29563.791 
   74000    289.73718   -1610.3632    483.84661    197.46115     7.289697    29563.791 
   74100    298.74918   -1594.6978    505.00896    275.46998    282.10822    29563.791 
   74200    290.12439   -1553.1966    520.49537    293.04593    390.63338    29563.791 
   74300    299.65232   -1554.3453     507.5133    322.45374    115.35373    29563.791 
   74400    295.48059   -1541.7822    512.46249    320.90306    40.395928    29563.791 
   74500    301.36641   -1590.5115    510.34555    296.95253    331.57293    29563.791 
   74600    309.08457   -1593.4607    470.40053    289.32703    295.57041    29563.791 
   74700    292.00006   -1606.4443    506.50193    234.37582   -129.09811    29563.791 
   74800    318.92289   -1557.0367    484.76261    385.07019   -369.50348    29563.791 
   74900    290.54723   -1578.2855    492.27203    241.66586    87.832069    29563.791 
   75000    303.79821   -1629.0997    486.17319    245.30428    71.204573    29563.791 
   75100    296.85066   -1593.9195    506.13915    268.70305      647.591    29563.791 
   75200    297.04726   -1569.6945    526.89532    314.58252    560.28948    29563.791 
   75300    306.73804   -1580.3087    509.33687     330.6927   -241.99054    29563.791 
   75400    299.63051   -1543.0283    531.97298    358.13079    317.16145    29563.791 
   75500    292.66333    -1545.132    494.09943    286.31647    165.48964    29563.791 
   75600    307.25443   -1569.5627    512.42656    346.88813    47.623293    29563.791 
   75700    288.34407   -1580.9013    510.98653    247.69701   -488.65635    29563.791 
   75800     300.5299   -1589.6478    503.02809    286.67627   -472.76502    29563.791 
   75900     300.6562   -1552.2069    527.84272    349.50891    348.56116    29563.791 
   76000    299.13219   -1599.7489    488.30566    255.46572   -63.260375    29563.791 
   76100    294.17988   -1579.7949    530.25097    294.73509    624.56395    29563.791 
   76200    304.28525   -1561.1801    520.32048    349.59677    875.50675    29563.791 
   76300    307.66553   -1584.3561    496.03229      317.579   -538.39708    29563.791 
   76400    302.00834   -1594.3873     518.3863    304.05078    103.14835    29563.791 
   76500    308.98373   -1537.0983    500.12023    374.94842    -70.04721    29563.791 
   76600    300.36879   -1533.9938    495.36725    333.93318   -528.46474    29563.791 
   76700    300.75616   -1565.8074    504.97632    313.49885    -502.1223    29563.791 
   76800    296.04155   -1561.7324    496.00182     287.0555    8.0416477    29563.791 
   76900    291.47235   -1542.2137    530.94603    320.63909    447.87769    29563.791 
   77000    300.88809   -1519.1928    519.27909    375.01904   -467.38534    29563.791 
   77100    294.82192    -1514.288    492.47679    325.40166   -319.31262    29563.791 
   77200    297.57202   -1513.0049    511.84498     358.6197   -210.76845    29563.791 
   77300    297.42207   -1582.9749    514.61819    290.73777    414.99486    29563.791 
   77400    301.86338   -1579.8546    489.37534    288.91017    425.22983    29563.791 
   77500    286.32814   -1585.8495    480.61037    203.16077   -374.49999    29563.791 
   77600    314.06336   -1570.0751    509.96044    375.02358    489.86956    29563.791 
   77700    308.77762   -1567.3681    508.47284    352.08938    150.85952    29563.791 
   77800     290.8109    -1584.797    512.88391     256.9711    468.27699    29563.791 
   77900    290.51868   -1558.6361    499.92974    268.84254    471.28879    29563.791 
   78000    297.19306   -1538.3753    515.46035    335.13304    129.27948    29563.791 
   78100    290.10033   -1552.2094    499.27181    272.69962   -243.21566    29563.791 
   78200     295.3137   -1562.9817    513.65068     300.1291   -330.77087    29563.791 
   78300    312.23165   -1594.1764     487.5181    320.10981    761.70068    29563.791 
   78400     300.5596   -1610.0746    502.68205    266.03917    124.81729    29563.791 
   78500    308.60915   -1587.9378    519.54472    341.82162    587.09537    29563.791 
   78600    300.71443   -1518.1033    495.20254    351.23846    338.31022    29563.791 
   78700    297.51959   -1537.7922    498.85533    320.60327    248.82318    29563.791 
   78800    304.80413   -1552.5011    524.53219    364.85856   -135.80757    29563.791 
   78900    308.19133   -1576.1011    494.71507    326.91947    182.83499    29563.791 
   79000    299.93748   -1537.0454    510.01266    343.55611    241.56065    29563.791 
   79100    304.12289   -1523.6058    494.12353    360.23218    490.35891    29563.791 
   79200    309.54579   -1542.0472      490.892    363.33962    531.65625    29563.791 
   79300    305.24082   -1530.7569       504.58      368.646    66.014633    29563.791 
   79400    295.67309   -1518.9368    504.72924    336.89483    275.71698    29563.791 
   79500    302.88674   -1494.2209    512.44393    402.28879     541.9473    29563.791 
   79600    291.05788   -1478.9543    511.01032    362.06887    1060.0213    29563.791 
   79700    308.37737   -1495.0152    524.94935    439.08979    611.22901    29563.791 
   79800     315.4917   -1561.8898    480.79161    360.56696   -441.52441    29563.791 
   79900    307.73707   -1557.9227    488.30257    336.60961   -318.43938    29563.791 
   80000      299.617   -1523.7568    500.02667     345.3942    -617.1796    29563.791 
   80100    299.02906   -1526.3374    523.52687    363.62723   -978.77288    29563.791 
   80200    285.87303   -1566.4868    500.99984    240.83317   -820.03671    29563.791 
   80300    310.69347   -1527.7259    518.41478    410.42809    35.000426    29563.791 
   80400    298.38575   -1583.4671    520.62138     300.6524    349.83756    29563.791 
   80500    303.71964   -1586.4224    518.52847    319.97782    594.46075    29563.791 
   80600    296.55665   -1545.7009    502.61455    312.05349    535.96792    29563.791 
   80700    301.64201   -1532.7323    519.70374    365.34929    377.27548    29563.791 
   80800    290.94527   -1511.4874    520.06984    338.08067     592.9534    29563.791 
   80900    298.58499   -1538.6901    504.95818    330.67655    239.71441    29563.791 
   81000    294.49201   -1527.4589    517.99832    336.24472   -586.87199    29563.791 
   81100    290.02876   -1512.0393    497.25611    310.52693   -588.37094    29563.791 
   81200    294.06888   -1518.9613    508.63631    333.44679    -368.5392    29563.791 
   81300    289.96937   -1530.4749    504.41986    298.98366   -412.44965    29563.791 
   81400    309.32894    -1504.252     506.7165    415.96836   -133.56857    29563.791 
   81500    296.28907   -1530.6999    490.90117    314.11842     269.4618    29563.791 
   81600    291.39586   -1536.9338     514.7532    309.37664   -845.90271    29563.791 
   81700    292.31126   -1506.4901    521.89338    351.14345   -322.26902    29563.791 
   81800     305.3413   -1524.1943    494.51684    365.60463   -74.020669    29563.791 
   81900    290.95139   -1537.6611    509.90298    301.76802    47.145204    29563.791 
   82000      294.836   -1525.4735    507.69962    329.50336   -115.29634    29563.791 
   82100    298.68041   -1534.3442    516.04728    346.54767    162.83942    29563.791 
   82200    297.08044   -1486.5385    514.33366     385.3286     363.2002    29563.791 
   82300    300.19631   -1506.5277    524.63553    389.87941   -42.506772    29563.791 
   82400    303.53984    -1538.109    513.22609    362.16719    15.668805    29563.791 
   82500    305.20729   -1552.4657    500.44949    342.65342    281.58664    29563.791 
   82600    298.13404   -1542.0227    486.57797    306.90311    517.78978    29563.791 
   82700    303.97392   -1518.1821     489.0909    359.94245    520.54318    29563.791 
   82800    301.49066   -1551.7921    519.01971    344.91387   -109.82862    29563.791 
   82900    296.38936   -1559.1177    503.59096    298.84872   -39.953657    29563.791 
   83000    295.46866   -1502.4659     496.8093    344.51167    631.48901    29563.791 
   83100    297.70951   -1526.7842    495.81974    329.44346    758.33329    29563.791 
   83200    285.35801   -1603.6403    480.16096    180.48738    394.42196    29563.791 
   83300    306.32991   -1589.1659     495.9963    306.63001    728.50332    29563.791 
   83400    293.98252   -1586.1368    495.39487    252.63525    281.75343    29563.791 
   83500    305.37565   -1587.1409    499.70243     308.0006    63.211439    29563.791 
   83600    300.67586   -1608.9054    479.31287    244.37039    689.96119    29563.791 
   83700    288.80846   -1606.9584    508.42284    221.19836    82.002781    29563.791 
   83800    303.53501   -1564.4592     534.5001    357.06894    10.460638    29563.791 
   83900    300.98218   -1525.3754    529.53525    379.52254    471.97318    29563.791 
   84000    298.63114   -1567.8542    495.13441    291.89968    384.45874    29563.791 
   84100    288.44287   -1552.8242    526.35433    291.59342     417.9585    29563.791 
   84200     292.5394   -1558.6441    481.34919    259.48781    207.24154    29563.791 
   84300    306.15542   -1557.6317    477.50417    318.87468    -65.28322    29563.791 
   84400    304.97596   -1514.1036    519.09999    398.60902    563.61257    29563.791 
   84500    307.37336   -1527.8074    505.93292    382.69321    505.95856    29563.791 
   84600    296.42811   -1509.4924    483.67192      328.732    137.35878    29563.791 
   84700     302.0216   -1546.3483     509.0935    342.85764    140.27281    29563.791 
   84800    294.58263    -1558.157    471.41453      259.377    317.52627    29563.791 
   84900    286.00954   -1566.0077    517.39835    258.33468    467.34301    29563.791 
   85000     284.1052   -1524.6243    496.35227    269.96996    37.203434    29563.791 
   85100    309.07169   -1594.9864    506.49781    323.83979   -317.24758    29563.791 
   85200    300.75754   -1554.2239    491.48837    311.60069    -54.99907    29563.791 
   85300    296.65338    -1539.045    490.24351    306.78038   -884.83816    29563.791 
   85400    297.06286   -1536.5848    513.89678    334.76498   -419.21561    29563.791 
   85500    297.28228   -1589.9051    504.70822    273.25886   -54.333798    29563.791 
   85600    292.51704   -1592.2079    515.09629    259.56893    40.980062    29563.791 
   85700    302.87126   -1579.3983    490.50095    295.09765   -698.14527    29563.791 
   85800    291.95809   -1571.4945    479.33439    241.96626    513.50128    29563.791 
   85900    306.34179   -1589.9751    491.19418    301.07295    292.97451    29563.791 
   86000    287.93095   -1596.9224    498.51908    217.32076    -268.6554    29563.791 
   86100     297.9883   -1584.1653    520.73584    298.25243    619.68555    29563.791 
   86200     306.7549   -1618.4289     514.0982    297.41091    555.45366    29563.791 
   86300    297.01542   -1553.7708    483.13131    286.59674    -6.288576    29563.791 
   86400    303.67118   -1615.2709    507.31994    279.69931    150.44265    29563.791 
   86500    299.82445   -1525.7615    482.31512    326.62595    191.76818    29563.791 
   86600    299.48914   -1570.5127    506.71268    304.74015    497.50167    29563.791 
   86700    305.08181      -1590.9    511.71291    314.90914    390.71774    29563.791 
   86800    301.09507   -1551.7839    480.69834    304.79298     966.9982    29563.791 
   86900    292.86065   -1529.5985    505.85986    314.51208    511.48445    29563.791 
   87000     304.6198   -1588.8471    493.95018    297.08813    588.07173    29563.791 
   87100    300.71258   -1566.7494    512.68953    320.07089    -100.8025    29563.791 
   87200    293.21237   -1557.8222    505.34702    287.38268   -466.32529    29563.791 
   87300    299.34113   -1589.2264    462.13085    240.76817   -657.49202    29563.791 
   87400    308.38535   -1558.1241    496.10997    347.17793    668.03217    29563.791 
   87500    292.13043    -1543.939    512.77518     303.7501     1130.221    29563.791 
   87600    302.60108    -1570.392    493.73546    306.10391    288.44052    29563.791 
   87700    297.00663   -1580.9786     511.1408    287.35826   -501.00492    29563.791 
   87800    304.03655   -1562.1148    501.64334    328.84841   -368.43997    29563.791 
   87900    298.42739   -1587.0433    476.00403    252.64909   -466.10622    29563.791 
   88000    295.46321   -1529.8769     501.2065    321.47296   -342.74016    29563.791 
   88100    303.76606   -1524.5411     533.0435    396.58631    100.29856    29563.791 
   88200    294.39599   -1549.3166    486.46683    282.41685   -165.00042    29563.791 
   88300    306.23901   -1547.5535    497.35311    349.18384   -442.30855    29563.791 
   88400    299.78123   -1586.0392    491.74514    275.58077   -1193.4999    29563.791 
   88500    299.33402   -1592.9671    487.24183    262.10603   -685.91449    29563.791 
   88600    303.41649   -1569.9751    504.89309    321.40441   -92.915401    29563.791 
   88700    300.78616   -1537.9944    477.81842    314.29105   -384.51503    29563.791 
   88800    300.36452   -1552.6216    493.45929    313.37795    188.01055    29563.791 
   88900    306.39624   -1595.5067    464.46596    269.06195   -648.95274    29563.791 
   89000    288.66483   -1592.2175    486.33431    213.19433     -450.846    29563.791 
   89100    291.06878   -1603.0021    513.46453      240.525    162.46298    29563.791 
   89200    299.11978   -1566.8973     486.7714    286.72642   -254.31986    29563.791 
   89300    295.93261   -1608.9097    498.54806    241.92667   -122.67003    29563.791 
   89400    304.83658   -1578.1548    507.08094    321.90186   -63.442736    29563.791 
   89500     296.2088   -1579.2669    504.95226     279.2357    45.925722    29563.791 
   89600     294.7782   -1595.6554    484.49183    235.84958  -0.97574547    29563.791 
   89700    295.04213   -1583.1281    506.85025    271.94123    273.98571    29563.791 
   89800    295.61911   -1591.7071    511.12732     270.2759     128.0335    29563.791 
   89900    300.99783   -1563.6952    514.03888    325.77792    93.601802    29563.791 
   90000    299.57457   -1572.8733    502.66843    298.72566    38.992635    29563.791 
   90100    289.12406   -1619.5851    483.65135    185.24228   -168.31718    29563.791 
   90200    298.12734   -1580.8115    487.79249    269.29821   -515.24501    29563.791 
   90300    305.19548   -1561.3854     489.3134    322.54375   -74.714579    29563.791 
   90400    296.13516   -1562.3875     486.5855    277.41186   -694.59673    29563.791 
   90500     305.7737   -1572.2557    498.82997    323.83222    423.68413    29563.791 
   90600    294.29087   -1543.9572    489.17464    290.00366   -278.61536    29563.791 
   90700    297.13363   -1590.2415    524.99232    292.52728   -257.82822    29563.791 
   90800    303.82872   -1608.1299    488.46305    268.70331    -523.3161    29563.791 
   90900    298.45713   -1647.4561    484.86182    201.22999   -250.63394    29563.791 
   91000    305.11893   -1631.8923     504.3212    266.69483    453.89318    29563.791 
   91100    303.42966    -1635.589    484.64631      235.604    311.08156    29563.791 
   91200    291.47911    -1624.457    499.26569    206.74636   -421.20233    29563.791 
   91300    296.47605   -1602.0338    505.73729    258.47507    29.692166    29563.791 
   91400    306.06676   -1571.6693    532.46433    359.39214   -616.02681    29563.791 
   91500    295.48678   -1574.8004    517.67596    293.12658   -793.14651    29563.791 
   91600    305.95727   -1586.2918    540.91578    352.72071   -333.39693    29563.791 
   91700    300.08609   -1570.3397    508.03984    308.96806    785.14923    29563.791 
   91800    313.52045   -1601.8952    516.20623    346.96839    228.54513    29563.791 
   91900     297.6479   -1613.7708    506.60762    252.96327   -422.75555    29563.791 
   92000    299.25637   -1573.6125    520.94395    314.80794   -20.635174    29563.791 
   92100     305.9133   -1567.5198    515.12385    345.49991   -615.44946    29563.791 
   92200    289.14372   -1528.5319    520.87377    313.60779    184.63649    29563.791 
   92300    307.97167   -1554.3976    516.34924    369.25335     382.1206    29563.791 
   92400     304.9059   -1541.5926    529.77775    381.47756    956.43265    29563.791 
   92500    287.68365   -1576.1018    520.31914    258.81131  -0.10571264    29563.791 
   92600    299.48019    -1599.637    527.19983    296.06204     132.8663    29563.791 
[...]
  986300    304.60175   -1606.8177    551.59953    336.68448    156.94511    29563.791 
  986400     299.6349   -1672.4577    538.24394    234.99244     490.7988    29563.791 
  986500    308.09459   -1630.9687    528.09291    304.98761    635.25912    29563.791 
  986600    300.38946   -1653.2622    492.99148    212.38347     502.4401    29563.791 
  986700    298.27099   -1633.9615    552.01715    281.02932   -919.96446    29563.791 
  986800     302.5601   -1622.3724     505.6818    265.88252   -540.83023    29563.791 
  986900     291.2025   -1617.7236    568.23984    281.18988   -435.77242    29563.791 
  987000    306.72945   -1684.0316    535.33321    252.92692   -215.26784    29563.791 
  987100    296.35439   -1656.2987    551.84952    249.76647    106.55117    29563.791 
  987200    306.44699   -1622.2945    516.19725    294.23735   -307.64789    29563.791 
  987300    296.61664   -1622.1783    548.91276    282.14848   -18.296537    29563.791 
  987400    298.67977   -1637.0966    548.10289    275.84795   -27.043572    29563.791 
  987500    303.97208   -1614.0692    545.04724     320.0033   -118.53814    29563.791 
  987600    307.33022   -1637.5995    528.47764    295.24868    501.66941    29563.791 
  987700    300.33947   -1630.6316     545.1977    286.99188    690.11574    29563.791 
  987800    299.98267   -1638.5441    526.94626    259.19754   -126.17134    29563.791 
  987900    295.71127   -1595.2729    526.18309    282.18709    255.08801    29563.791 
  988000    294.45868   -1605.7331    553.13766     292.9576   -130.82359    29563.791 
  988100    296.35761   -1653.8355    543.09786    243.49269    531.95727    29563.791 
  988200    304.23232   -1672.6603    523.92414    241.47827    1198.5677    29563.791 
  988300    300.17588    -1602.542    558.31077    327.44705    1094.9831    29563.791 
  988400    302.22481   -1638.6473    496.89072    239.28443    427.15417    29563.791 
  988500    318.35537   -1617.5936    520.12657    357.28393    657.69723    29563.791 
  988600    295.75167   -1620.2296    549.53315    280.76503   -724.43357    29563.791 
  988700    304.55644    -1621.678     525.7451    295.76263    8.6190529    29563.791 
  988800    297.44949   -1603.1495    518.29765    274.36792    153.69731    29563.791 
  988900    304.39106    -1626.261    547.11754    311.79636   -244.57026    29563.791 
  989000     301.3328   -1639.9445    541.50351    278.52388    299.17702    29563.791 
  989100    296.90528   -1643.2538    525.31763    238.79684   -609.11933    29563.791 
  989200    299.72084   -1706.2185    526.55736    189.93772   -634.48307    29563.791 
  989300     301.6531   -1702.4232    533.98565      209.991   -47.254339    29563.791 
  989400    291.44362   -1678.1512    541.63381    195.25803   -481.47899    29563.791 
  989500    293.59197   -1637.5578    517.75979     221.7945   -713.19231    29563.791 
  989600    300.07181   -1672.5409    531.33187    229.99369   -544.98696    29563.791 
  989700     309.3036   -1657.3234    522.37926    278.44397   -517.16301    29563.791 
  989800    296.05464   -1624.7205    544.81639    272.94183   -974.54022    29563.791 
  989900    294.77907   -1649.6764    502.40325    199.74396   -589.18417    29563.791 
  990000    304.25882   -1628.2476    539.00985    301.09782    291.62089    29563.791 
  990100    292.44788   -1629.0982    546.76835    254.03461    935.10076    29563.791 
  990200    298.61825   -1587.5592    518.90893     295.9102     278.9286    29563.791 
  990300    298.60694    -1600.249    567.58634    331.84618   -58.943163    29563.791 
  990400    292.56968    -1578.514    555.49633    313.90349   -98.946554    29563.791 
  990500    294.20672   -1627.4269    543.24143    260.21615   -121.58315    29563.791 
  990600    292.75344   -1620.0119    532.53552    250.28444   -257.98542    29563.791 
  990700    286.10364   -1621.9889    530.07577    215.46082   -295.69177    29563.791 
  990800    295.49869   -1605.1436    539.36932    284.53113   -11.602787    29563.791 
  990900    308.49642   -1587.1784    555.95894    378.48014   -50.012347    29563.791 
  991000    296.24805   -1612.4225    557.04714    298.35436    388.75359    29563.791 
  991100    288.26475   -1630.5496    511.82132     198.5211    75.070551    29563.791 
  991200    292.18947   -1585.8866    543.37539    292.67245    403.09853    29563.791 
  991300    296.63913   -1574.2651    538.10998    319.36164    551.92213    29563.791 
  991400    304.41671   -1578.3902    548.71396    361.38083    536.89619    29563.791 
  991500    299.92391   -1579.0051    546.43691    337.95866    600.28961    29563.791 
  991600    302.48165   -1617.6982    519.14975    283.66623    259.20786    29563.791 
  991700    294.14936   -1629.5442    565.25279    279.84821    519.11031    29563.791 
  991800    311.39351   -1616.8282    544.56809    350.67796   -113.42265    29563.791 
  991900    298.15449   -1632.0112    523.92366    254.35383    645.36283    29563.791 
  992000    304.01418    -1609.098    537.09458    317.21422    814.73389    29563.791 
  992100    291.90763   -1619.6384    537.72385    251.98127   -116.69622    29563.791 
  992200    287.52124   -1585.1044    542.04918    270.79658   -726.31752    29563.791 
  992300    304.14206   -1608.7676    540.98634    322.02074   -874.98623    29563.791 
  992400    305.05746   -1580.3892    555.06015    368.65593   -908.07281    29563.791 
  992500    285.23279    -1577.847    552.52988    278.07746   -332.85073    29563.791 
  992600    308.83019   -1593.5145    542.25922    359.96953    -201.8022    29563.791 
  992700    287.41327   -1625.2896    586.14261    274.21151   -342.71594    29563.791 
  992800    308.32787   -1661.9079     536.7231    283.74465    522.27733    29563.791 
  992900    294.48277   -1670.5029    529.40877    204.56896    789.50409    29563.791 
  993000    313.24067   -1624.2625    510.30833    317.42467    796.16795    29563.791 
  993100    296.07258   -1650.8722    521.52647    223.58216    570.91952    29563.791 
  993200    307.36757    -1621.734    540.63572    323.44296    863.66003    29563.791 
  993300    300.95136   -1636.3698    531.38402    270.23607    471.23124    29563.791 
  993400    295.41032   -1599.5648    569.67134    320.00816    580.73738    29563.791 
  993500    294.53989   -1583.3076    553.31301    315.92952    815.80916    29563.791 
  993600    295.47479   -1560.2969     525.4991    315.39837    334.04839    29563.791 
  993700    301.21648   -1554.7473    582.15722    403.84326    262.78218    29563.791 
  993800    296.96813   -1607.6879    538.22641    287.55873    421.93081    29563.791 
  993900    316.22704   -1602.4945    540.14472    382.67555    985.95789    29563.791 
  994000    298.65348   -1632.5245    551.13272    283.32968     309.7254    29563.791 
  994100    302.59771   -1680.1611    519.33808    221.92198    242.09308    29563.791 
  994200    300.58436   -1657.1753    539.29214    255.66165    668.77129    29563.791 
  994300    291.11815    -1676.245    543.81773     197.8609    577.99133    29563.791 
  994400    297.06344   -1676.1015    527.15809    208.51226    516.00633    29563.791 
  994500    299.28899   -1683.8712    542.39444    226.14871    8.8643481    29563.791 
  994600    303.47414   -1682.3283    529.64928    234.07091   -356.70203    29563.791 
  994700    295.60348   -1613.7314     513.4568    250.50972   -187.09651    29563.791 
  994800    299.07867   -1652.4093    541.74382    255.99902   -253.11829    29563.791 
  994900    290.41402   -1684.5988    523.10778    165.57956   -1101.2611    29563.791 
  995000    301.03759   -1648.8426    523.45907    250.23235   -882.27568    29563.791 
  995100    291.41127   -1653.6235    526.22451    204.22865   -384.64885    29563.791 
  995200    297.59223   -1624.9246    571.08915    306.03657   -820.70487    29563.791 
  995300    295.68956   -1699.7787    539.73949    191.13838   -80.055812    29563.791 
  995400     307.4139   -1629.2033    563.01351    338.56312   -552.60153    29563.791 
  995500    296.12038   -1612.8193    554.57137    294.89838    611.73779    29563.791 
  995600    305.35708   -1628.1234    557.28156    324.51226    98.294037    29563.791 
  995700    303.82909   -1611.0636    530.25619    307.56446    679.08397    29563.791 
  995800    302.43791   -1601.3031    558.92169    339.63333    300.54846    29563.791 
  995900    292.93665   -1627.2355    561.26299    272.62543   -310.25885    29563.791 
  996000    302.96317    -1612.976    549.19457    320.63355   -801.69787    29563.791 
  996100    296.97135   -1588.0797    574.52164    343.47682   -851.92856    29563.791 
  996200    301.58311   -1590.2258    545.02268    332.90558   -420.21767    29563.791 
  996300    294.56718   -1607.0395    543.26327    282.27259   -514.83465    29563.791 
  996400    297.72521    -1634.983    573.26893    298.76564    -51.89472    29563.791 
  996500    301.65281   -1639.9766    536.12169    274.57227   -358.03412    29563.791 
  996600    305.83462   -1613.3765    563.32471    347.48448    831.83915    29563.791 
  996700    297.95377   -1622.2502    518.87071    258.14459    763.66946    29563.791 
  996800    309.23214   -1651.9022    558.87544    320.03481   -367.36302    29563.791 
  996900    294.75207   -1613.3172    517.21967    250.79621   -271.44696    29563.791 
  997000    299.35742   -1610.9103     547.6132    304.64111   -1005.3763    29563.791 
  997100    306.61708   -1645.0644    569.99178    326.03917    248.62818    29563.791 
  997200    297.17749   -1678.7652    526.85473    206.06642   -264.71269    29563.791 
  997300     293.0324    -1681.881    545.75282    202.90733    416.73237    29563.791 
  997400    288.87666   -1672.3452    551.83965    199.53999   -72.931377    29563.791 
  997500    305.95566   -1664.4614    545.99898    279.62697    349.36179    29563.791 
  997600     294.3655   -1605.2009    534.75707    274.68343    155.94222    29563.791 
  997700    292.94405   -1618.7789    565.09137    284.94432   -5.2235891    29563.791 
  997800    336.08739   -1619.4579    503.39784    419.71875    1494.1721    29563.791 
  997900    305.27852   -1644.3459    557.27747    307.92673    662.86504    29563.791 
  998000    300.83564   -1638.9133    547.34221      283.122    596.18307    29563.791 
  998100    306.18825   -1616.1806    547.82804    330.79967    39.021113    29563.791 
  998200      303.167   -1664.2397    544.89494     266.0017    -15.27129    29563.791 
  998300     295.5725   -1626.8079    563.87057    287.70542   -293.98974    29563.791 
  998400    298.08508   -1588.9399    560.17252    333.35678   -158.37886    29563.791 
  998500    294.94796   -1613.5202    546.51595    280.78454   -462.66746    29563.791 
  998600    290.09074   -1664.4102    545.59413    206.77733   -726.11751    29563.791 
  998700     289.1784   -1665.8322    515.54454    171.13669    921.87015    29563.791 
  998800    295.97225   -1675.4927    531.39699    208.37371    1441.9323    29563.791 
  998900    304.08316   -1687.7543    535.45787    237.23645    750.48195    29563.791 
  999000    304.53233   -1680.5541    548.50717    259.53843    538.07972    29563.791 
  999100    295.41024   -1641.1885    556.12237    264.83507     58.99027    29563.791 
  999200    305.74027   -1632.8274     536.2606    300.53836     337.8569    29563.791 
  999300     298.8797   -1635.0258    546.44387    277.17334     323.3329    29563.791 
  999400    288.67567   -1599.7871    556.08939    275.42943   -591.05483    29563.791 
  999500     306.0925   -1647.9709    537.26264    288.00645     299.7138    29563.791 
  999600    303.82267   -1659.0288    521.32555    250.63927   -4.0247684    29563.791 
  999700    289.36914   -1657.9604    553.40588    217.74146   -82.058503    29563.791 
  999800    309.45948   -1613.6142    543.03551    343.52176    184.06564    29563.791 
  999900    304.52657   -1650.9202    534.11199    274.75092    96.478375    29563.791 
 1000000    304.79846   -1619.9691    551.80299    324.63542   -901.10612    29563.791 
 1000100      298.242   -1673.9719    516.17704    205.04635    447.93428    29563.791 
 1000200    293.97546   -1663.6632    546.70994    226.39165    954.60151    29563.791 
 1000300    296.41183   -1644.5014     551.4187    261.39542    39.294969    29563.791 
 1000400    307.12299   -1626.1763    561.68802     338.9353   -107.32997    29563.791 
 1000500    300.43786   -1600.3624    582.24889    354.76189     323.6935    29563.791 
 1000600    303.37415   -1635.3191    546.96939     297.9433    645.95011    29563.791 
 1000700    312.11596   -1628.3433     529.8618    327.75791    517.54426    29563.791 
 1000800    310.06761   -1626.2604     543.8779    334.49677    1042.3828    29563.791 
 1000900    303.58506   -1646.2254     551.3903    292.42162    641.79335    29563.791 
 1001000    306.85647   -1658.8089    520.55964    263.95645   -373.04923    29563.791 
 1001100     298.9877   -1626.3041    532.73226    272.67694       10.826    29563.791 
 1001200    295.59697   -1645.0899    547.99451    253.65911   -287.56184    29563.791 
 1001300    306.08213   -1652.8684    559.06725    304.86621   -336.64741    29563.791 
 1001400    308.22866   -1626.5136    538.62053    320.58302    288.13694    29563.791 
 1001500     304.1742   -1642.0585    547.89244    295.78288    1102.3789    29563.791 
 1001600    295.31161   -1672.9759     544.2615    220.73618     311.0481    29563.791 
 1001700     297.2391   -1665.1513    556.66914    249.77627    121.51848    29563.791 
 1001800    303.15329   -1675.4742    516.94854    226.75803    553.34401    29563.791 
 1001900    305.06847   -1680.7557     527.7347    241.01431   -381.36923    29563.791 
 1002000    308.10923   -1673.5918    541.79307    276.13162    391.33878    29563.791 
 1002100    295.88672   -1657.1251     528.0388    222.99226    35.456711    29563.791 
 1002200    302.05982   -1608.7317    513.86819    285.42351   -29.995352    29563.791 
 1002300    293.35558   -1626.9752    536.28859    249.82567   -588.60607    29563.791 
 1002400    305.50967   -1597.2233    561.64868    360.47685    299.11467    29563.791 
 1002500    297.84553   -1593.9397    542.47149    309.56132     121.1929    29563.791 
 1002600     302.9849   -1599.6973    550.62488     335.4419     656.9037    29563.791 
 1002700    293.64138   -1600.7707    548.93595    289.98358    363.51544    29563.791 
 1002800    303.73272   -1572.3828    548.27292    363.82168   -364.40816    29563.791 
 1002900    308.10517   -1586.6806    568.91855    390.14974   -93.280675    29563.791 
 1003000    295.47581   -1599.3051    516.14512    267.04083    781.54416    29563.791 
 1003100    305.31312   -1575.8566    574.67767    393.97433    383.03249    29563.791 
 1003200    292.58914   -1633.7377    558.20513    261.47743    487.98074    29563.791 
 1003300    295.10954   -1558.5896    568.24846     358.1861    615.15497    29563.791 
 1003400    298.60177   -1599.6038    567.94908    332.83045    244.07242    29563.791 
 1003500    304.23333   -1643.0614    554.27146    301.42914   -60.809719    29563.791 
 1003600    301.59734    -1603.412    567.82591    342.58761   -117.42716    29563.791 
 1003700    304.03574    -1610.334    576.20314    355.18534   -376.67668    29563.791 
 1003800    288.97869   -1626.4972    542.85823    236.87285    512.54971    29563.791 
 1003900    300.30457   -1643.1361    548.49333    277.62351    27.721977    29563.791 
 1004000    294.27434   -1657.3091    545.99926     233.4008   -773.45471    29563.791 
 1004100     297.3401   -1618.1592    581.90638     322.4671    -815.1666    29563.791 
 1004200    294.95136   -1635.4803    543.84525    256.16935   -550.98411    29563.791 
 1004300     292.7061   -1635.4323    565.68284      267.795    -634.2059    29563.791 
 1004400    296.09845   -1602.1354    593.53349    344.44418    -547.4796    29563.791 
 1004500    289.03324    -1630.621     555.0501    245.19008    -659.6479    29563.791 
 1004600    307.63487   -1615.6352    553.39338    343.52094   -126.61727    29563.791 
 1004700    310.63219   -1607.7213    559.23915    370.97702   -74.750234    29563.791 
 1004800    293.23956   -1642.8876    573.67906    270.77364   -202.05566    29563.791 
 1004900    298.79923   -1644.8995    552.68435     273.1724   -15.254857    29563.791 
 1005000    301.82563   -1647.1759    543.81722    275.85824    11.548766    29563.791 
 1005100    299.90342   -1695.4011    552.68221    227.71429    815.92368    29563.791 
 1005200    310.55182   -1687.8246    571.03363    302.30099    342.40452    29563.791 
 1005300    298.45425   -1709.5501    557.50258     211.7636   -102.43137    29563.791 
 1005400    302.86864   -1688.4759    505.33989      200.847    262.80751    29563.791 
 1005500    296.61513   -1673.0952    547.31275    229.62464   -984.75541    29563.791 
 1005600    297.34312   -1679.5358    543.85856    223.05647   -1280.1223    29563.791 
 1005700    309.61679   -1646.9271    547.75047    315.64263   -1018.1837    29563.791 
 1005800    303.70477   -1646.7642    548.13568    289.17532   -607.99807    29563.791 
 1005900    304.32795   -1611.4611     538.3942    317.58458    196.57096    29563.791 
 1006000    296.52971   -1646.8319    569.77029    277.95515    459.33414    29563.791 
 1006100    291.80203   -1709.6611    574.60119    198.35336    529.78735    29563.791 
 1006200    294.39772   -1678.7187    563.94236    230.49815     379.9224    29563.791 
 1006300    293.13294   -1704.9074    553.08578    187.67335     364.3932    29563.791 
 1006400    298.06578   -1646.2233    579.01505    294.82768    993.73326    29563.791 
 1006500    300.11014    -1682.214    588.08295    277.24678    313.25676    29563.791 
 1006600    288.48307    -1663.179    537.83989    192.90788    613.13153    29563.791 
 1006700    302.04688   -1660.1019    553.70845    273.83449    824.12189    29563.791 
 1006800    321.02159   -1651.2082    549.76728     365.4935    441.42501    29563.791 
 1006900    293.42845   -1672.6698    578.95103    247.12653   -18.573638    29563.791 
 1007000    300.13932   -1662.3976    552.80112    261.91467   -528.15991    29563.791 
 1007100    304.73662   -1666.9233    555.89812    281.49372   -158.04522    29563.791 
 1007200    298.85813   -1638.1351    560.11357    287.63512    664.36605    29563.791 
 1007300    306.63315   -1603.3279    551.02294    348.88027    611.35117    29563.791 
 1007336    300.26151   -1641.1998    574.83969    305.70944   -379.93141    29563.791 
Loop time of 617.039 on 32 procs for 1000000 steps with 1534 atoms

Performance: 140.024 ns/day, 0.171 hours/ns, 1620.644 timesteps/s
100.0% CPU use with 32 MPI tasks x no OpenMP threads

MPI task timing breakdown:
Section |  min time  |  avg time  |  max time  |%varavg| %total
---------------------------------------------------------------
Pair    | 320.11     | 339.07     | 353.02     |  41.5 | 54.95
Bond    | 1.5141     | 1.7368     | 2.0657     |  10.4 |  0.28
Neigh   | 43.803     | 43.884     | 43.952     |   0.9 |  7.11
Comm    | 205.1      | 218.59     | 237.53     |  51.5 | 35.43
Output  | 0.39152    | 0.40915    | 0.90062    |  13.8 |  0.07
Modify  | 10.132     | 10.349     | 10.519     |   3.0 |  1.68
Other   |            | 3.004      |            |       |  0.49

Nlocal:        47.9375 ave          74 max          30 min
Histogram: 7 0 5 3 4 4 6 0 2 1
Nghost:        2384.16 ave        2482 max        2281 min
Histogram: 3 3 4 4 1 2 4 2 6 3
Neighs:        6594.53 ave       10731 max        3651 min
Histogram: 1 7 4 3 5 5 2 3 0 2

Total # of neighbors = 211025
Ave neighs/atom = 137.56519
Ave special neighs/atom = 2.0782269
Neighbor list builds = 49675
Dangerous builds = 0
The system volume is 29563.7914659406
Lattice vectors
30.9209890340061 0 0
0 30.9209890340061 0
0 0 30.9209890340061
Total wall time: 0:10:23
