LAMMPS (29 Sep 2021 - Update 1)
Reading data file ...
  triclinic box = (0.0000000 0.0000000 0.0000000) to (15.000000 15.000000 15.000000) with tilt (0.0000000 0.0000000 0.0000000)
  2 by 4 by 4 MPI processor grid
  reading atoms ...
  1518 atoms
  scanning bonds ...
  3 = max bonds/atom
  scanning angles ...
  6 = max angles/atom
  scanning dihedrals ...
  9 = max dihedrals/atom
  scanning impropers ...
  2 = max impropers/atom
  reading bonds ...
  1019 bonds
  reading angles ...
  532 angles
  reading dihedrals ...
  43 dihedrals
  reading impropers ...
  6 impropers
Finding 1-2 1-3 1-4 neighbors ...
  special bond factors lj:    0        0        1       
  special bond factors coul:  0        0        1       
     4 = max # of 1-2 neighbors
     5 = max # of 1-3 neighbors
     8 = max # of special neighbors
  special bonds CPU = 0.002 seconds
  read_data CPU = 0.017 seconds
WARNING: Using 'neigh_modify every 1 delay 0 check yes' setting during minimization (../min.cpp:188)
Neighbor list info ...
  update every 1 steps, delay 0 steps, check yes
  max neighbors/atom: 10000, page size: 100000
  master list distance cutoff = 13
  ghost atom cutoff = 13
  binsize = 6.5, bins = 3 3 3
  3 neighbor lists, perpetual/occasional/extra = 3 0 0
  (1) pair hbond/dreiding/lj, perpetual, skip from (3)
      attributes: full, newton on
      pair build: skip
      stencil: none
      bin: none
  (2) pair lj/cut, perpetual, half/full from (3)
      attributes: half, newton on
      pair build: halffull/newton
      stencil: none
      bin: none
  (3) neighbor class addition, perpetual
      attributes: full, newton on
      pair build: full/bin
      stencil: full/bin/3d
      bin: standard
Setting up cg style minimization ...
  Unit style    : real
  Current step  : 0
WARNING: Energy due to 1 extra global DOFs will be included in minimizer energies
Per MPI rank memory allocation (min/avg/max) = 14.53 | 14.87 | 15.59 Mbytes
Step Temp E_pair E_mol TotEng Press Volume 
       0            0 2.1856095e+15    231.04122 2.1856095e+15 1.7761633e+17         3375 
    5538            0   -1048.6686     49.26043   -999.40813    106.66251    37711.072 
Loop time of 4.77427 on 32 procs for 5538 steps with 1518 atoms

100.0% CPU use with 32 MPI tasks x no OpenMP threads

Minimization stats:
  Stopping criterion = energy tolerance
  Energy initial, next-to-last, final = 
    2.18560952012521e+15  -998.823580948082  -998.907371161158
  Force two-norm initial, final = 1.7191245e+17 108.63167
  Force max component initial, final = 7.6717988e+16 77.980959
  Final line search alpha, max atom move = 1.4037174e-05 0.0010946323
  Iterations, force evaluations = 5538 5539

MPI task timing breakdown:
Section |  min time  |  avg time  |  max time  |%varavg| %total
---------------------------------------------------------------
Pair    | 1.4185     | 2.5995     | 3.834      |  42.9 | 54.45
Bond    | 0.0071061  | 0.012112   | 0.034719   |   4.4 |  0.25
Neigh   | 0.096617   | 0.096867   | 0.097037   |   0.0 |  2.03
Comm    | 0.47397    | 1.707      | 2.8922     |  53.0 | 35.75
Output  | 0          | 0          | 0          |   0.0 |  0.00
Modify  | 0          | 0          | 0          |   0.0 |  0.00
Other   |            | 0.3588     |            |       |  7.51

Nlocal:        47.4375 ave          67 max          30 min
Histogram: 6 0 4 3 5 4 2 4 2 2
Nghost:        2002.38 ave        2069 max        1937 min
Histogram: 3 2 3 2 4 5 7 3 0 3
Neighs:        5082.25 ave        7739 max        2855 min
Histogram: 5 2 4 3 5 4 1 2 3 3

Total # of neighbors = 162632
Ave neighs/atom = 107.13570
Ave special neighs/atom = 2.0434783
Neighbor list builds = 97
Dangerous builds = 0
1500 atoms in group WAT
18 atoms in group MOL
Neighbor list info ...
  update every 2 steps, delay 10 steps, check yes
  max neighbors/atom: 10000, page size: 100000
  master list distance cutoff = 13
  ghost atom cutoff = 13
  binsize = 6.5, bins = 6 6 6
  4 neighbor lists, perpetual/occasional/extra = 3 1 0
  (1) pair hbond/dreiding/lj, perpetual, skip from (4)
      attributes: full, newton on
      pair build: skip
      stencil: none
      bin: none
  (2) pair lj/cut, perpetual, half/full from (4)
      attributes: half, newton on
      pair build: halffull/newton
      stencil: none
      bin: none
  (3) compute group/group, occasional, copy from (2)
      attributes: half, newton on
      pair build: copy
      stencil: none
      bin: none
  (4) neighbor class addition, perpetual
      attributes: full, newton on
      pair build: full/bin
      stencil: full/bin/3d
      bin: standard
Setting up Verlet run ...
  Unit style    : real
  Current step  : 5538
  Time step     : 1
Per MPI rank memory allocation (min/avg/max) = 13.38 | 13.45 | 14.06 Mbytes
Step Temp E_pair E_mol TotEng Press Volume 
    5538          300   -1048.6686     49.26043    357.15853    1751.0536    37711.072 
    5600    301.05794   -1072.0537    142.70196    431.99883   -267.60452    37711.072 
    5700    307.63413   -1079.7065    235.12188    546.50266   -398.38196    37711.072 
    5800    291.86263   -1080.2846    215.43872    454.92451   -120.34703    37711.072 
    5900    306.71299   -1087.0377    215.20818    515.09255   -236.89446    37711.072 
    6000    296.77209   -1072.0677     207.6874    477.59012    202.99116    37711.072 
    6100    297.25232   -1074.8629    221.41915    490.69819    467.97166    37711.072 
    6200    304.98055   -1085.0728    213.51105    507.52639    175.09823    37711.072 
    6300    292.30172   -1076.1602    206.89899    452.49468    449.22414    37711.072 
    6400    305.03664   -1119.1222     223.2663    483.48588   -199.29837    37711.072 
    6500    288.37744   -1071.9603    233.11165    465.16205    241.80865    37711.072 
    6600    297.24665   -1100.1211    225.88674    469.88195    567.99459    37711.072 
    6700    292.63053   -1064.8841    229.00388    487.36253    460.55581    37711.072 
    6800     305.7243   -1121.7384    232.79406    493.50694    275.19253    37711.072 
    6900    310.25483   -1108.5724     219.6191    513.98451    160.13107    37711.072 
    7000    304.63116   -1082.3973    225.37699    520.48795    485.69898    37711.072 
    7100    304.85735   -1065.8956    233.70172    546.33715    381.43446    37711.072 
    7200    292.35486   -1059.9904    235.59612    497.60193    98.115804    37711.072 
    7300    297.05645   -1047.2713    235.20874    531.19364     280.5491    37711.072 
    7400    302.18639    -1080.816     231.8304     517.4677    246.00328    37711.072 
    7500    308.11333   -1078.5355    242.91517    557.63393    195.38398    37711.072 
    7600    293.82866   -1091.8867    240.45226    477.22612    255.69456    37711.072 
    7700    294.87793   -1076.2518    241.89973    499.05312    394.96011    37711.072 
    7800    308.84072   -1053.2478     239.5119    582.80753    413.95729    37711.072 
    7900    293.45847    -1055.992    233.12947    504.12407    211.21686    37711.072 
    8000    295.84143   -1123.1862    244.18821    458.76403    405.72532    37711.072 
    8100    293.70032   -1066.2139     256.7617    518.62799     642.9246    37711.072 
    8200    291.63665   -1048.5398    250.09848    520.30721    405.39343    37711.072 
    8300     302.0904   -1072.4679    244.22056    537.77191    334.39815    37711.072 
    8400    297.15901    -1074.416    246.97011    516.27416    342.93653    37711.072 
    8500    291.73632   -1080.6158    255.07644    493.65981    659.03436    37711.072 
    8600    299.71901   -1076.5912    241.25966    519.96451    267.73283    37711.072 
    8700    306.90931   -1062.3695    238.75695    564.19725    144.76523    37711.072 
    8800    304.39204   -1052.8752     245.0825    568.63427    264.84237    37711.072 
    8900    293.95182   -1125.5883    235.91288    439.54204    33.987702    37711.072 
    9000    294.84743   -1097.8185    258.82593    494.27472    -222.8671    37711.072 
    9100    312.79915   -1086.9226    243.71882    571.23918   -243.13002    37711.072 
    9200    308.71075   -1077.1859    257.26759    576.03734    90.458026    37711.072 
    9300    296.63879   -1075.3361    254.09518    520.12668    151.66575    37711.072 
    9400    318.78221   -1054.2459    265.68792    652.93978     427.6785    37711.072 
    9500    305.05475   -1100.7697    252.92143    531.57542    35.854141    37711.072 
    9600    293.75313    -1103.618    258.11894    482.81993    188.04217    37711.072 
    9700     299.2557    -1135.234    256.62184    474.58888    463.02688    37711.072 
    9800    296.44017   -1132.9156    262.79697    470.35086    62.214676    37711.072 
    9900    310.91508   -1122.1791    264.15787     547.9022    610.57427    37711.072 
   10000    300.06617   -1082.4331    272.87119     547.3039    465.12451    37711.072 
   10100    306.48106   -1051.7214    281.81411    615.96598    498.52456    37711.072 
   10200    309.91906   -1085.5112     269.1224    585.03074    613.49679    37711.072 
   10300     296.3885   -1078.8552     269.3277    530.70834    238.21918    37711.072 
   10400     292.9243   -1058.2462    276.48347    542.80836    326.83318    37711.072 
   10500    287.74812   -1034.6268    297.44611    563.98431     509.4582    37711.072 
   10600    302.19151   -1092.6756    266.54985    540.35066     219.0145    37711.072 
   10700    305.71666   -1074.6187    279.20194    586.99995    110.56287    37711.072 
   10800    300.35899   -1097.9131    266.21109    526.48793   -312.05893    37711.072 
   10900    297.78445   -1074.7766    285.09209    556.86362    155.75258    37711.072 
   11000    304.48592   -1094.8977    297.00552     578.9593    380.25813    37711.072 
   11100    303.07417   -1089.8967    264.62922    545.20021    368.42409    37711.072 
   11200     314.9066   -1060.1085    278.30224    642.16637    362.64061    37711.072 
   11300     295.7879   -1042.4283    288.58234     583.6741    132.72742    37711.072 
   11400     303.5624   -1068.7571    280.75214     584.6705    394.32172    37711.072 
   11500    305.21787   -1112.4062    277.79472    545.54984    729.45021    37711.072 
   11600    289.27015   -1121.6671    281.16142    467.54174    599.80127    37711.072 
   11700    303.99608    -1107.487     282.2487     549.3982    706.60653    37711.072 
   11800    306.98864   -1094.5423    302.91078    596.53693    540.01696    37711.072 
   11900    298.90734   -1075.8562     292.7139    568.48348     142.9385    37711.072 
   12000    300.25164   -1062.5936    292.76088    587.87182    354.59598    37711.072 
   12100    290.47718   -1076.5651     285.5381    522.47849    632.82314    37711.072 
   12200    302.41654   -1085.5924    311.22944    593.13101     267.0009    37711.072 
   12300    302.66535   -1081.8913    289.22884     575.9566    506.31786    37711.072 
   12400    296.92122   -1091.5368    319.45122    570.55914    555.35651    37711.072 
   12500    293.28985   -1103.0152    289.23551    512.44442    559.21809    37711.072 
   12600    295.18566   -1093.3028    294.41939    535.91334   -263.19548    37711.072 
   12700     299.8752   -1109.3829    312.64152    559.26095   -83.357786    37711.072 
   12800    298.78965   -1112.4458    283.74367     522.3915   -502.92958    37711.072 
   12900    299.17732    -1147.717    320.77462    525.90423    238.70703    37711.072 
   13000    290.86681    -1135.097    300.55704    480.72744   -264.75819    37711.072 
   13100    293.84353    -1134.592    309.52615    503.66199    109.70228    37711.072 
   13200    304.32608   -1115.9939    301.78659    561.92137    18.372664    37711.072 
   13300    293.16678   -1132.2414    317.42876    510.85492   -126.15154    37711.072 
   13400     302.3263   -1137.1107    313.29625    543.27148    250.82427    37711.072 
   13500    296.93286   -1111.2196    322.45398     553.9318    137.18982    37711.072 
   13600    311.78415    -1135.199    316.59547    591.24973    841.74787    37711.072 
   13700    295.74886   -1109.7009    323.20691    550.84949    28.635967    37711.072 
   13800    288.58452   -1120.0182    331.26225    516.19116    188.99391    37711.072 
   13900    301.12092   -1146.4847    326.13318    541.28383    454.21561    37711.072 
   14000    305.27812   -1140.6563    299.47296    539.25036    517.65291    37711.072 
   14100    307.92438   -1168.8695    319.06842    542.59876    164.98252    37711.072 
   14200    297.08444   -1191.0442    319.69501    472.03358   -201.32147    37711.072 
   14300     299.5496   -1184.3813    295.22106    465.36976   -12.706598    37711.072 
   14400    300.28627   -1153.6567     310.5424    514.74679    35.017618    37711.072 
   14500    293.38978   -1185.2086    312.42827    453.89566    -318.8196    37711.072 
   14600    296.90289   -1159.7105     305.2312    488.08263    127.87538    37711.072 
   14700    304.37161   -1191.9678    308.46199    492.82875    356.07339    37711.072 
   14800    301.78852   -1143.9897    310.11329    530.77773    141.84913    37711.072 
   14900    287.91951   -1168.7779    329.64994    462.81203    207.06675    37711.072 
   15000    299.34095   -1150.2177    316.10465    519.47343   -53.770206    37711.072 
   15100    306.83354    -1172.287    327.65943     542.8396    319.45156    37711.072 
   15200    299.40216   -1114.9648    308.49535    547.39381    242.62472    37711.072 
   15300    292.17614   -1138.6131    338.59882    521.17375    -334.5348    37711.072 
   15400     298.2296   -1149.8895    319.80194    518.47351   -3.7627753    37711.072 
   15500    297.69732   -1141.3923     331.4524    536.21429    373.93838    37711.072 
   15600    301.43544   -1126.5733    318.60586     555.0901    478.66455    37711.072 
   15700    297.27335   -1131.4623    332.41165    545.18637    200.06894    37711.072 
   15800    298.83614   -1093.2911    336.53432    594.54706    715.79436    37711.072 
   15900    304.09418   -1157.8027    330.03658      547.314    -14.07615    37711.072 
   16000     295.7999   -1098.5831    324.31977    563.31097   -138.83491    37711.072 
   16100    300.67167   -1158.0469    339.10639    540.66338   -35.224404    37711.072 
   16200    301.49484   -1156.5327    334.31997    541.11338    130.33944    37711.072 
   16300    298.83621   -1129.9883    336.28952    557.60537   -120.79861    37711.072 
   16400     290.7597   -1126.0984    330.47118    519.15585    231.45817    37711.072 
   16500    308.52801    -1105.777    347.68507    637.03749    487.65623    37711.072 
   16600    296.15871   -1147.4892    326.72593    518.43353    805.61354    37711.072 
   16700     306.5536   -1128.7475    346.15452     603.6083    740.28917    37711.072 
   16800    302.60487    -1128.956    337.15464    576.54428     613.2406    37711.072 
   16900    300.08719   -1124.1698    329.25487    562.04596    369.99257    37711.072 
   17000    303.47709   -1096.4607    334.78217    610.61113    55.378118    37711.072 
   17100    300.22411   -1115.6679    330.07332    571.98553   -91.832932    37711.072 
   17200     289.4853   -1135.5674    334.17367    507.62664    240.03914    37711.072 
   17300    292.83286   -1135.2637     335.2509    524.14482    330.64232    37711.072 
   17400    305.95114   -1147.9994    347.03702    582.51466    107.17581    37711.072 
   17500    294.17842   -1121.7635    342.84663    551.32519     671.6236    37711.072 
   17600    308.36504   -1165.0319    346.37276     575.7333    585.43841    37711.072 
   17700    296.49283   -1167.0755     324.7475    498.37959    291.45016    37711.072 
   17800    297.26352   -1182.0053    359.66536    521.85267    750.96489    37711.072 
   17900    308.35114   -1178.6493    337.49639    553.17665    573.98338    37711.072 
   18000    292.83127   -1196.1105    330.25675    458.29668   -320.92968    37711.072 
   18100    306.30369   -1178.1865    330.33339    537.21811    893.85003    37711.072 
   18200    302.63142    -1184.534    344.53305    528.46464    775.18003    37711.072 
   18300    297.60814   -1160.6512    306.28762    491.38738    211.16544    37711.072 
   18400    298.22337   -1176.2553    327.42813    499.70576     732.7688    37711.072 
   18500    298.39997    -1208.452    341.20922    482.08868    221.87758    37711.072 
   18600    296.72622   -1236.2475    315.44746    420.96295    465.93067    37711.072 
   18700    297.35859   -1202.2008    341.41211    483.83383    368.44187    37711.072 
   18800    298.26967   -1170.9567    321.11949    498.90506     579.6319    37711.072 
   18900    290.05677   -1174.9596     340.4981    477.14299    397.67829    37711.072 
   19000    302.90833    -1185.483    344.95955    529.19439    81.500056    37711.072 
   19100    288.88131   -1177.9226    344.93226    473.29885    194.28719    37711.072 
   19200     291.4945    -1208.862    335.93111    445.17484    270.73914    37711.072 
   19300    299.57896   -1233.1993    326.61076    448.07424     11.70247    37711.072 
   19400    302.00566   -1222.6329    318.52329    461.52641   -93.968376    37711.072 
   19500    298.10191   -1163.5576    339.40757    523.83372    584.90106    37711.072 
   19600    304.62592    -1187.599    341.33533     531.2209    203.28456    37711.072 
   19700    310.07255   -1180.8735    345.35708    566.59716    859.79809    37711.072 
   19800    307.22705   -1184.8685     330.9225    535.30053    538.59805    37711.072 
   19900    289.78755   -1189.1591    340.08301    461.31101    202.72256    37711.072 
   20000    305.21987   -1174.0895    352.92685    559.00774     605.2471    37711.072 
   20100     294.3492   -1168.1999    349.29647    512.11089    47.698147    37711.072 
   20200    284.76396   -1164.6407    350.24871    473.27897    68.575365    37711.072 
   20300    291.79288   -1145.0071    362.34646    536.79434    148.93266    37711.072 
   20400    307.33011   -1169.6663    343.67041    563.71676     606.7646    37711.072 
   20500    304.31078   -1150.8984     350.2279    575.38902    694.10987    37711.072 
   20600    307.52765   -1180.0596    347.29912    557.84535    837.83801    37711.072 
   20700    291.15694   -1140.4327    362.92822    539.07486    182.46594    37711.072 
   20800    300.17349   -1213.1438     340.9708    485.17814    419.13919    37711.072 
   20900    301.83776   -1202.3524    357.97145    520.49583    102.00404    37711.072 
   21000    296.07491   -1197.3628     344.5678    486.02287    176.08211    37711.072 
   21100    299.22917    -1176.834    356.72657    532.97359   -152.77727    37711.072 
   21200     294.9908   -1167.3804     367.3433    533.87846   -397.64504    37711.072 
   21300    299.50313   -1152.4807    341.48444    543.32364    -394.8011    37711.072 
   21400    290.92207   -1136.2432    364.35074    543.62477   -316.40187    37711.072 
   21500    298.93448   -1164.7153     355.2062    542.23938   -114.62593    37711.072 
   21600    304.59048   -1124.6334    367.16373    619.85465    78.399603    37711.072 
   21700     294.7962   -1148.0131    351.38214    536.40467   -22.025773    37711.072 
   21800    308.63341   -1196.6995    364.70727    563.61369    101.62807    37711.072 
   21900    301.04099   -1232.0594    353.30031    482.51481    453.26784    37711.072 
   22000    299.42148   -1232.0744    342.79632    464.67253    -150.6924    37711.072 
   22100     299.3291   -1204.8808    347.38456    496.03672   -199.66647    37711.072 
   22200    302.61397   -1156.6576    348.93476    560.66388   -161.37965    37711.072 
   22300    292.51473   -1211.9299     357.9109     468.7001   -196.13563    37711.072 
   22400    292.24366   -1220.8346    362.21887     462.8776   -396.86043    37711.072 
   22500    289.49649   -1199.5652    371.78954    481.29529   -9.3342912    37711.072 
   22600    308.00828   -1169.0279    350.52742    574.27869    204.44926    37711.072 
   22700    292.68004   -1193.3322    363.38527    493.51965    -200.5955    37711.072 
   22800    295.03007   -1147.1075    362.92964    549.91526     605.8999    37711.072 
   22900    307.29641   -1149.0962    345.79065    586.25466    496.11413    37711.072 
   23000    299.72788   -1154.0914    351.84236    553.08711    750.61273    37711.072 
   23100    292.28558   -1171.6685    369.88772    519.90215    892.86393    37711.072 
   23200    297.87812   -1168.7085    371.56628    549.82952    136.72084    37711.072 
   23300    289.79825   -1156.5296    340.63785    494.54378    375.83527    37711.072 
   23400    302.56931   -1173.4641    365.10618    559.82689   -51.315478    37711.072 
   23500     308.6637   -1147.4521    364.04392    612.33477    479.67439    37711.072 
   23600    296.25882   -1183.0623    380.45924    537.04635   -137.73867    37711.072 
   23700    300.58098    -1170.895    340.16027    528.45908     177.7382    37711.072 
   23800    292.18342   -1181.2652    357.97217    497.92798    278.70567    37711.072 
   23900    287.34366   -1173.8724    354.85305    480.31674   -6.3498112    37711.072 
   24000    301.31624   -1184.1011    366.12391    544.54139    206.32623    37711.072 
   24100    299.18984   -1195.2783    379.94153    537.56645    237.71804    37711.072 
   24200    302.54922     -1181.22    373.66857    560.54251    312.88587    37711.072 
   24300     302.6625   -1173.5604    374.06571    569.11148     462.0284    37711.072 
   24400    298.37121   -1182.0925    368.68406    535.79299    216.00359    37711.072 
   24500    287.96916   -1167.9193    375.29678    509.54204    472.66084    37711.072 
   24600     308.6729   -1101.0732    372.62687    667.33821    621.21237    37711.072 
   24700    299.33264   -1150.9602    372.68023    575.26898     205.4841    37711.072 
   24800    295.91735   -1164.4663    364.45799    538.09703   -8.1832229    37711.072 
   24900    283.09864   -1199.2001    379.60841    460.54886    422.22901    37711.072 
   25000    308.63084   -1191.8781    365.97919    569.69546   -35.045688    37711.072 
   25100    291.45103   -1166.5641    351.99923    503.34426     36.93655    37711.072 
   25200    305.50923   -1173.9692    375.12987    582.63945   -275.04336    37711.072 
   25300    300.22527   -1199.7373     366.5758    524.42381   -132.69489    37711.072 
   25400    296.09428   -1187.9702    371.76235     522.6976    120.25231    37711.072 
   25500    300.59076    -1179.123    382.05161    562.16662    540.15691    37711.072 
   25600    304.20515   -1195.4553     386.6627    566.78923    293.88126    37711.072 
   25700    306.55301   -1230.0044    384.57937     540.7736    678.36849    37711.072 
   25800    302.99534    -1204.935    356.97112     522.1474    793.52765    37711.072 
   25900    305.23071   -1204.9641    397.05004    572.30525    573.08091    37711.072 
   26000     301.1363   -1228.3634    369.29713    502.63865    342.98095    37711.072 
   26100    297.39322   -1254.7343     365.5366     455.5814     514.2684    37711.072 
   26200    306.26425   -1236.8644    367.49549    515.52402    408.62199    37711.072 
   26300    306.84718   -1166.3556    370.80436    591.97757    112.24384    37711.072 
   26400    295.11111   -1169.1277    384.83419    550.16615    307.79969    37711.072 
   26500    309.76261   -1233.5921    381.98535    549.10536    382.68185    37711.072 
   26600    302.78373   -1222.2164    361.72585     508.6638    280.05592    37711.072 
   26700    292.68459   -1203.4816     342.8702     462.8758   -475.43248    37711.072 
   26800    303.91355   -1237.1919    377.16991     514.2413   -426.50391    37711.072 
   26900    305.99348   -1249.0745     369.0465    503.64055    117.50658    37711.072 
   27000    293.08255   -1250.5142    372.79081    447.56337     130.9408    37711.072 
   27100    292.74219   -1241.7182    374.45294    456.48237    380.52187    37711.072 
   27200    310.97608   -1264.1305       365.78     507.8488    568.15991    37711.072 
   27300    302.91947   -1231.5521    394.13741    532.35344    211.77492    37711.072 
   27400    294.53896   -1269.2262    363.06981    425.71605    64.003141    37711.072 
   27500    293.18068   -1257.0998    366.94871    435.57931   -1021.4178    37711.072 
   27600    292.59716   -1279.1172     359.9685    403.94317   -645.26224    37711.072 
   27700     293.2561   -1265.7752    377.81621    438.11245   -479.54642    37711.072 
   27800    301.81918   -1250.8493    370.49348    484.43692   -423.82397    37711.072 
   27900    300.28272   -1201.2302    372.02984    528.64469    55.029085    37711.072 
   28000    297.17828   -1242.6095     365.5536    466.75123    250.97507    37711.072 
   28100     296.6362   -1214.1645    379.39491    506.58636    111.02782    37711.072 
   28200    304.05346   -1204.4592    376.01152    546.44832    385.67297    37711.072 
   28300    304.73437   -1159.8822    355.81288    573.90568    333.82321    37711.072 
   28400    307.40747    -1183.362     381.7052    588.40559    -49.08708    37711.072 
   28500    307.90243   -1211.1993    382.35863    563.45988   -106.33083    37711.072 
   28600     303.9468   -1223.3485    381.17592    532.24111    178.49659    37711.072 
   28700    303.24345   -1231.6444    359.21286    498.80158   -28.477034    37711.072 
   28800    293.78133   -1194.9435    380.57047    514.07347   -211.86434    37711.072 
   28900    301.39113    -1227.528    380.20595    515.53511   -546.06719    37711.072 
   29000    315.74902   -1222.9277    388.30816    593.16244   -372.03492    37711.072 
   29100     302.6299    -1226.483     359.3034    501.27915   -28.314091    37711.072 
   29200    296.42171   -1253.6839     399.4997    486.20182    212.59024    37711.072 
   29300    288.92046    -1223.495    363.17716    446.14838   -72.515278    37711.072 
   29400    296.02575   -1243.6336    389.85902    484.82092    352.85818    37711.072 
   29500    302.32075   -1231.7271    389.02446    524.35821    683.55749    37711.072 
   29600    294.38305   -1216.9927    397.74304    511.91776    504.41368    37711.072 
   29700    304.57885    -1244.692    394.68113    527.26085    415.35334    37711.072 
   29800    295.93171   -1263.6034    377.95207    452.51893    746.39024    37711.072 
   29900    294.84998   -1251.6442    392.15166    473.78629    464.97425    37711.072 
   30000    307.26181   -1199.3842    391.20247    581.22203    103.05875    37711.072 
   30100    302.14738   -1230.7404    409.04703    544.58349    65.984689    37711.072 
   30200    296.50281   -1204.8745    400.77524    536.65345    86.564708    37711.072 
   30300    305.37412   -1223.6983    413.81084    570.98042   -1.3653809    37711.072 
   30400    308.35641   -1233.0438    402.09182    563.40145    3.0423602    37711.072 
   30500    294.50061   -1278.1348    382.87088     436.4351    442.38945    37711.072 
   30600    302.00894    -1259.785    412.14918    518.01503    533.00286    37711.072 
   30700    292.86528    -1221.575    375.83907    478.56827   -211.97838    37711.072 
   30800    297.97369   -1191.5717    390.15764    545.98989   -654.87893    37711.072 
   30900    295.55585   -1209.6315    408.02763     534.8668    77.003719    37711.072 
   31000    302.78527    -1249.926    392.99286    512.22822    286.73194    37711.072 
   31100    310.57948   -1227.6419    370.75268    547.51668   -120.16744    37711.072 
   31200    299.70528   -1174.7661    392.78711    573.25503    401.26591    37711.072 
   31300    296.21429   -1215.0836    374.40935    498.77382    227.73083    37711.072 
   31400    311.87051   -1251.2037     373.0385    532.07864   -130.09059    37711.072 
   31500    292.15973   -1250.4206     397.2183    467.91148   -368.24325    37711.072 
   31600    281.31691   -1240.4189    379.75185    411.41677   -8.0966017    37711.072 
   31700    301.68615   -1231.2849    403.94735    536.85366    70.892991    37711.072 
   31800    298.79253   -1234.8476    399.20363    515.46264    157.81732    37711.072 
   31900    293.46203   -1222.8845    409.20414    513.32235    140.62908    37711.072 
   32000    304.96756    -1203.959    402.22202    577.29239    164.32343    37711.072 
   32100    299.29118   -1232.0837    411.94994    533.22773   -186.63487    37711.072 
   32200     293.0667   -1206.4901    400.37166    519.09658    277.84093    37711.072 
   32300    300.79575   -1198.6943    390.34715     551.8178   -144.63616    37711.072 
   32400    295.67194   -1202.9735    416.47384    550.49599    4.5347571    37711.072 
   32500    295.72523   -1213.2672    401.59625    525.56564    191.70923    37711.072 
   32600    291.49029    -1228.662    393.81306    483.23779    10.176459    37711.072 
   32700    298.89282   -1248.1661    397.66405    501.05806    363.69428    37711.072 
   32800    304.26851    -1223.055    404.36583    557.17917     330.0018    37711.072 
   32900    289.53539   -1218.6522    378.59481    469.18948   -402.47423    37711.072 
   33000    305.67287   -1201.1716    400.37073    581.41784   -308.39333    37711.072 
   33100    302.31243   -1225.9222    379.37098    520.47197    466.90532    37711.072 
   33200    301.87981   -1235.9315    384.28495     513.4204    194.54174    37711.072 
   33300    291.66271   -1230.8224    389.39838    477.44236    780.17566    37711.072 
   33400    293.62771    -1277.686    385.16627    435.23217     752.2213    37711.072 
   33500    304.65927   -1302.2545    369.30403    444.68485    552.79682    37711.072 
   33600    302.10951   -1273.4441    390.77139    483.43287    996.53148    37711.072 
   33700    302.11063   -1245.0697    383.94714    504.98815    1088.8014    37711.072 
   33800    307.33428   -1264.1835    389.04064    514.58858    1172.2977    37711.072 
   33900    311.76481   -1259.2105    385.20669    535.76203    544.65575    37711.072 
   34000    300.72338   -1288.5457    384.96498    456.25693    695.66343    37711.072 
   34100    306.19793   -1243.8811    412.49574    553.20761    592.80071    37711.072 
   34200    318.26156   -1228.7354     384.1388    594.54678    768.40461    37711.072 
   34300    292.29955    -1231.969    396.64916    486.42623    608.09961    37711.072 
   34400    304.84084   -1212.5599    394.31456    560.21111    687.11868    37711.072 
   34500    294.50849   -1186.7828    398.83102    543.78293    423.56508    37711.072 
   34600    298.36361   -1214.4376    385.08977    519.81929   -413.95027    37711.072 
   34700    306.14919   -1233.9184    397.04616    547.50041   -423.48983    37711.072 
   34800    299.93319   -1223.1135     376.8075    509.95852   -435.40695    37711.072 
   34900    295.09853   -1241.0746    388.31605    481.64415    -315.9337    37711.072 
   35000      304.866   -1244.8382    384.02262    517.75456   -293.92634    37711.072 
   35100    303.12643   -1253.3606    383.35147    500.69491   -133.99633    37711.072 
   35200    298.94226   -1254.4497    398.98748    496.32144    126.32873    37711.072 
   35300    294.13432   -1257.0944    402.39374    475.34202    157.05535    37711.072 
   35400    313.67073   -1229.3293    400.10612    589.16101    818.54251    37711.072 
   35500    293.08668   -1246.9799    406.14375     484.4693    249.88691    37711.072 
   35600    290.84596   -1226.5963    414.15159    502.72838   -19.254357    37711.072 
   35700    302.39118   -1190.8138    382.05314    558.61861    639.85349    37711.072 
   35800    297.05339   -1195.8423    418.53792    565.93808    670.60254    37711.072 
   35900     294.0956   -1221.0195    434.15703    543.00514    811.79578    37711.072 
   36000    303.98337   -1252.1986    399.10894    521.48934    295.01565    37711.072 
   36100    300.51814   -1244.3402    406.63403    521.20346    412.87967    37711.072 
   36200    297.38308   -1234.6191    421.03854    531.15265    71.646158    37711.072 
   36300    311.97146   -1221.9022    405.91362    594.71169     427.1522    37711.072 
   36400    294.93611   -1259.8565     431.1091    504.92096    1084.3037    37711.072 
   36500    302.73442   -1225.8676    410.71027    553.77404    947.69621    37711.072 
   36600    296.63353   -1232.0118     423.5751    532.90709    862.12953    37711.072 
   36700    289.11715   -1225.6096    443.18835     524.9344    317.09151    37711.072 
   36800    296.00879   -1238.3904    414.16669    514.29517    57.410706    37711.072 
   36900    300.12888    -1230.923    392.06564     518.2921    283.02854    37711.072 
   37000    298.02649   -1237.9622    377.32306    487.00353   -295.98233    37711.072 
   37100    299.71602   -1218.3351    405.14564    542.09307   -197.46456    37711.072 
   37200    296.57217   -1208.4771    402.56688    535.15612    216.23903    37711.072 
   37300    299.21298   -1259.4045     413.8324    507.43571    727.36044    37711.072 
   37400    294.91959   -1254.6213     407.4436    486.41592    492.46408    37711.072 
   37500    321.59027   -1246.0895    416.40994    624.51588    781.07541    37711.072 
   37600     300.2141   -1286.8754    414.19247    484.85187    698.91886    37711.072 
   37700    296.67345   -1253.4156    391.13993    479.24869    615.23864    37711.072 
   37800    296.71696   -1246.0178    413.29095    508.99423    944.86348    37711.072 
   37900     302.8335   -1253.5363    418.16968    534.01285    261.98092    37711.072 
   38000    301.46474   -1269.8295    396.70968    490.07024     78.25352    37711.072 
   38100    304.03178   -1227.6322    407.03934    554.20507    441.74349    37711.072 
   38200    298.86436   -1255.5662    390.07186    485.93704    49.994222    37711.072 
   38300    296.43963   -1260.9985    426.84315    506.31164    197.39599    37711.072 
   38400    296.25705   -1231.5886    428.63902    536.69185    584.37688    37711.072 
   38500    299.12427   -1236.5784    411.60087    527.62914    452.32205    37711.072 
   38600    290.85967   -1199.5683    428.56397    544.23075    122.59521    37711.072 
   38700    303.34132   -1239.3595    415.43857    547.75482    978.98695    37711.072 
   38800    297.74831    -1260.245    422.53918    508.67894    678.21026    37711.072 
   38900     306.7696   -1305.2269    401.12513    483.07628    942.35355    37711.072 
   39000    296.21316   -1276.0942    406.42423    469.77303    447.46811    37711.072 
   39100    296.53098   -1247.5738    430.12742    523.43375   -55.656655    37711.072 
   39200    303.91052   -1212.7976    450.16212    611.61412   -311.74555    37711.072 
   39300    297.71362   -1241.8526    441.11962    545.49497    357.85231    37711.072 
   39400    307.42346   -1253.4602    422.17902    558.85358    35.691252    37711.072 
   39500    305.05336   -1233.8811    433.22997    578.76626    94.403072    37711.072 
   39600    294.26182   -1219.1374    456.98179    568.46369   -154.67656    37711.072 
   39700    301.92726   -1273.5652    418.84633    510.56267    8.0493758    37711.072 
   39800    295.89204   -1264.7329    397.43245    470.69044    59.686739    37711.072 
   39900    295.20003    -1248.003    412.27711     499.1358    4.5112852    37711.072 
   40000    290.73492   -1254.6254    435.55377     495.5993   -97.170144    37711.072 
   40100    306.53262     -1210.99    422.44547    597.56192    346.29232    37711.072 
   40200    304.65683     -1258.79    402.54732    521.38162    330.96959    37711.072 
   40300    299.77092   -1244.4146    435.12719    546.24335    46.414043    37711.072 
   40400    302.45966    -1315.873    397.11481    448.93079    307.96911    37711.072 
   40500    299.82202   -1253.0682    427.20653    529.90019    371.93159    37711.072 
   40600     302.0725   -1253.7093    398.96519    511.19421    138.83788    37711.072 
   40700    294.13797    -1267.188    418.40017    481.27136    212.98194    37711.072 
   40800     301.3909   -1271.3767    412.59503    504.07446    167.16766    37711.072 
   40900    304.40896   -1256.6694     416.8248     536.6589   -312.33884    37711.072 
   41000    293.32462   -1210.1332    406.76001    523.00816     659.7464    37711.072 
   41100     298.6637   -1246.5447    395.84581    499.82513    359.47104    37711.072 
   41200    307.21506   -1268.6724    424.39646    544.91641    322.44347    37711.072 
   41300    299.43573   -1222.0026     413.6549    545.66736   -8.7372673    37711.072 
   41400     305.7918    -1218.552    410.57538    574.77994    344.75971    37711.072 
   41500    313.51314   -1233.1738    419.97734    604.47509    623.27116    37711.072 
   41600    288.88959   -1275.4313    422.82202    453.71731    179.06505    37711.072 
   41700     297.5855   -1255.0116    411.82431    502.46125    186.28204    37711.072 
   41800    301.85247   -1273.3295    423.33641    514.95023    369.48664    37711.072 
   41900     301.7872   -1263.4327    402.59107    503.80659      634.276    37711.072 
   42000    302.92669   -1294.6193    394.22782    469.40934      529.768    37711.072 
   42100    296.98618   -1292.8469     416.6978    466.78938    391.98106    37711.072 
   42200    307.68203   -1295.4151      421.461    517.34985    432.29999    37711.072 
   42300    300.16812   -1303.5739    437.33764     491.0906    455.26032    37711.072 
   42400    298.86729   -1328.6657    436.14975    458.92868     131.8609    37711.072 
   42500    302.19074   -1323.9597    434.92025     477.4335    134.09237    37711.072 
   42600    294.14525   -1278.3088    432.54098    484.32436   -89.128738    37711.072 
   42700    304.34675   -1304.3808    404.59734    476.43871   -153.46972    37711.072 
   42800    296.37195   -1338.4396    426.02559    427.74705    70.056526    37711.072 
   42900    295.94068   -1292.8503    423.73546    469.09598   -325.50831    37711.072 
   43000    301.14136   -1238.8962    428.49802    551.32952    419.06698    37711.072 
   43100    294.50618   -1260.1658    431.14913    502.70754   -129.73876    37711.072 
   43200    309.93044    -1264.701     405.7136    542.48363   -146.22484    37711.072 
   43300    301.76429   -1273.5522    431.54681    522.53921   -227.61949    37711.072 
   43400    293.12333   -1247.4258    443.64616    521.69149    682.00952    37711.072 
   43500    299.37636   -1278.5788    441.38011    516.54795   -130.08902    37711.072 
   43600    304.33677   -1251.3233    418.60944    543.46316    536.85335    37711.072 
   43700    304.95242   -1277.2617    402.87923    504.57845   -131.07019    37711.072 
   43800    294.28962   -1261.2094    439.46449    509.00002    130.59129    37711.072 
   43900    301.21744   -1248.9453    440.41343    553.53995    343.38761    37711.072 
   44000    293.91317   -1249.7922    410.33351    489.58398     394.9051    37711.072 
   44100    296.23198   -1237.1367    435.61499    538.00635    162.15822    37711.072 
   44200    291.59278    -1237.766    425.03238    505.81654    241.16004    37711.072 
   44300    304.65475   -1203.4271    427.29322    601.48107    38.735377    37711.072 
   44400    301.21279   -1225.6087    436.64975    573.09184    23.042823    37711.072 
   44500    301.01747   -1249.7553    426.76381    538.17601    724.59426    37711.072 
   44600    297.07788   -1192.2911    436.36621    587.42825    171.86463    37711.072 
   44700    303.10127   -1249.9904    433.59518    554.19501    320.46604    37711.072 
   44800    298.40407   -1243.2996    439.50355    545.55398   -83.188395    37711.072 
   44900    287.22489   -1247.8739    441.49439    492.41952    190.77599    37711.072 
   45000    315.11069   -1250.4397    436.19283    610.64865     -275.853    37711.072 
   45100    297.14058   -1240.8351    422.05583    524.85739   -812.77662    37711.072 
   45200    294.95125   -1200.8141    432.36545    565.28816   -236.69473    37711.072 
   45300    295.56367   -1243.6899    415.36268    508.17881   -193.55836    37711.072 
   45400     300.7773   -1226.8619    435.24403    568.46367   -7.6758928    37711.072 
   45500     299.0453   -1210.5398    439.81533    581.52514   -174.00813    37711.072 
   45600    298.80535   -1252.8089    412.92203    511.27769    215.62977    37711.072 
   45700    305.69222   -1213.6469    421.78925    590.44857    273.28658    37711.072 
   45800    292.70921   -1201.5694    442.45714    564.48626    264.58952    37711.072 
   45900    295.89985   -1197.4461    447.26953    587.84969    107.64857    37711.072 
   46000     309.7712   -1224.3257    419.47056    595.89577    -111.4576    37711.072 
   46100    294.94058   -1232.9164     443.9345     544.7066    -26.24464    37711.072 
   46200    301.31709   -1237.0031    436.30947    561.82874   -173.36528    37711.072 
   46300    291.67033   -1239.2811    427.96426    507.58392    104.61032    37711.072 
   46400    307.68606   -1243.0232    412.32048    560.61944    45.139368    37711.072 
   46500    293.48762   -1253.5812    419.19115     492.7283   -233.34712    37711.072 
   46600    301.49045   -1241.9411    462.78508    584.15024    -267.7236    37711.072 
   46700    291.80281   -1240.6454    472.30597     551.1604   -441.58467    37711.072 
   46800     297.7719   -1251.1732     442.5625    537.88074    426.38346    37711.072 
   46900    295.67663   -1209.1257     433.5328    561.42397    272.39711    37711.072 
   47000    290.03882   -1251.8889      453.547    513.18137     232.9885    37711.072 
   47100     303.7713   -1245.7051    453.19479    581.10972    111.52598    37711.072 
   47200    295.07038   -1205.0565    445.43373    574.65266    381.69737    37711.072 
   47300    307.56138   -1218.7425    474.47592    646.49184    839.39548    37711.072 
   47400    301.91709   -1278.9236     444.2994    530.61129    210.42257    37711.072 
   47500    291.64983   -1248.8453    445.64114    515.60394    644.10728    37711.072 
   47600    306.50923   -1293.2668    438.24205    530.97595    1046.7587    37711.072 
   47700    299.48542   -1294.7513    434.27071    493.75918    583.93031    37711.072 
   47800    302.50426   -1291.5655     426.2292    502.55438    496.24462    37711.072 
   47900    298.98886   -1278.9724    452.81046    525.83248    281.33724    37711.072 
   48000    306.29763      -1271.1    443.74106    557.68488    296.39465    37711.072 
   48100    310.78014   -1273.3976    458.43136    590.34705    186.50227    37711.072 
   48200    308.50317   -1286.4265    425.19681    533.78734    69.134559    37711.072 
   48300    302.54057   -1309.9401    428.39308     486.5078   -235.92739    37711.072 
   48400    306.22296   -1312.4586    437.52168    509.76923   -289.47822    37711.072 
   48500    296.14192   -1320.7841    434.31893    452.65562    39.394053    37711.072 
   48600    306.21854   -1323.2081    428.26751    489.74566    193.43415    37711.072 
   48700    303.84404   -1348.7542     456.9138    482.10859    78.226594    37711.072 
   48800    301.45491   -1265.2249    429.34717    527.26785    237.12133    37711.072 
   48900    303.01424   -1290.7413     441.1673    520.62267    316.47167    37711.072 
   49000    297.33728    -1300.846    431.34822    475.02834   -233.16988    37711.072 
   49100    297.66667   -1287.6374    462.76776    521.14595    66.391441    37711.072 
   49200    298.19697   -1297.9101    439.69258    490.19602    439.86673    37711.072 
   49300    304.01125   -1270.6652      473.888    577.92786    163.04351    37711.072 
   49400    300.44694   -1302.5443    452.39905    508.44244    813.48769    37711.072 
   49500    291.33457   -1327.2352    434.36481    424.51214   -319.76795    37711.072 
   49600    304.00728   -1332.6577    457.90698    499.93642   -706.84467    37711.072 
   49700    299.40882   -1255.1492    455.40694    554.15116   -114.00159    37711.072 
   49800    313.31138   -1280.0416    465.48023    602.19789   -252.32107    37711.072 
   49900    297.25765   -1288.3146     426.2351    482.08658    36.196824    37711.072 
   50000    295.60906   -1299.9352    472.72717    509.50332   -247.88118    37711.072 
   50100    297.36571   -1309.7765    435.75301     470.6312   -28.827663    37711.072 
   50200    295.01797   -1323.6348    433.37809    443.78172    492.70422    37711.072 
   50300    305.89608   -1334.1105    458.61856    507.73609    402.07062    37711.072 
   50400    317.38551   -1334.5267    426.22615    526.88141    610.06486    37711.072 
   50500    300.07323   -1287.9439    444.04779    513.00169    683.92375    37711.072 
   50600    301.76577    -1279.887    450.06641    534.73072    382.51701    37711.072 
   50700    295.06467   -1343.3811    400.31411    391.18261   -109.78896    37711.072 
   50800    295.59031   -1359.8562    443.42641    420.19674    341.90659    37711.072 
   50900    292.33547   -1300.6739    439.36946    460.60404    397.07804    37711.072 
   51000    299.75332   -1325.7394    433.04149    462.75326    259.30988    37711.072 
   51100    292.44408   -1331.3049    436.44062    427.53537   -73.177061    37711.072 
   51200    303.89903   -1308.2461    446.81017    512.76167   -172.49722    37711.072 
   51300    301.12734   -1273.2542     452.7531    541.16327   -504.99025    37711.072 
   51400    293.62627   -1275.6706    437.57147    489.64624    178.08854    37711.072 
   51500    310.22597   -1303.5189    435.44769    534.73621    191.17392    37711.072 
   51600     306.4517   -1318.8067    464.21568    531.14949   -312.51188    37711.072 
   51700    299.24789   -1283.8296    430.33824    499.67434   -422.78052    37711.072 
   51800    303.76425   -1329.7308    441.98017    485.83753    60.731413    37711.072 
   51900    289.93614   -1328.3897     457.3173    439.98661    301.29385    37711.072 
   52000    272.17534    -1329.545    428.03253    329.23417   -176.23096    37711.072 
   52100    294.85078   -1312.8923     467.0352    487.42534   -740.35826    37711.072 
   52200    298.50004   -1303.5041    441.71366     487.9935   -29.120913    37711.072 
   52300    298.43126   -1231.1154    447.68887    566.04642    -53.52902    37711.072 
   52400    293.97761   -1270.2657    415.87284    474.94119   -363.10624    37711.072 
   52500    292.95914   -1286.9927    448.14672     485.8827     136.2386    37711.072 
   52600    307.19027   -1236.7999    433.13985    585.42019   -111.03432    37711.072 
   52700    287.59992   -1239.3702    442.33559    503.46026   -172.34954    37711.072 
   52800    292.60931   -1261.7766    457.51805    518.88823   -127.89553    37711.072 
   52900    309.11021   -1281.7775    433.14697    549.13151    -32.56839    37711.072 
   53000     300.5116   -1254.4235    457.30559    561.76217    308.40348    37711.072 
   53100    309.88003   -1230.9539    478.90519     649.1944     85.99126    37711.072 
   53200     304.8818   -1253.3935    459.70261    584.95072    37.693347    37711.072 
   53300    298.55734   -1265.9414    450.19366    534.29538     65.69854    37711.072 
   53400    291.09339   -1268.7376    431.35055    478.90486    176.84501    37711.072 
   53500    290.54493   -1281.3826    440.25248    472.68173    -67.74086    37711.072 
   53600    308.00212    -1295.769    484.28499    581.26739   -23.047235    37711.072 
   53700    304.37458   -1297.2739     438.0155    517.08961    553.34969    37711.072 
   53800    290.65718   -1305.4197    464.47672    473.37647     319.8251    37711.072 
   53900     292.7131   -1312.1427    436.80114    448.27459    267.23619    37711.072 
   54000    302.10114   -1293.9632    455.93443    528.03899    459.38653    37711.072 
   54100    307.39905   -1322.5271    459.49188    526.98909   -28.676473    37711.072 
   54200    293.27515   -1349.2915    439.97158    416.83776   -111.83046    37711.072 
   54300    300.59488   -1332.7925    454.80762    481.27173    386.83771    37711.072 
   54400    308.68794   -1352.3386    463.60606    507.12001   -378.61468    37711.072 
   54500    299.39802   -1312.1197     454.3632    496.08805   -514.13126    37711.072 
   54600    306.35226   -1325.5795    464.47168    524.18301   -502.83213    37711.072 
   54700    298.98508   -1305.8397    477.14359    523.28116   -308.26448    37711.072 
   54800    307.23592   -1322.5285    461.67969     528.4379   -192.61098    37711.072 
   54900    301.18389   -1258.7043    456.91163    560.12737   -545.24008    37711.072 
   55000    306.77518   -1285.1832    452.19409    554.21413    232.52088    37711.072 
   55100    294.41719   -1266.2373     457.5094    522.59394    129.07897    37711.072 
   55200    307.08163   -1299.4318    456.51999    545.67719    120.85379    37711.072 
   55300    292.21601   -1316.6273    471.87879    476.61984    31.923266    37711.072 
   55400    303.53202   -1303.4998    443.69775    512.73603    294.27875    37711.072 
   55500    297.27287   -1326.2552    442.06464    460.04429    124.07603    37711.072 
   55600    301.46334   -1300.6181    467.78513     530.3508   -135.93177    37711.072 
   55700    300.55828   -1271.9478    466.75791    553.90121   -464.62516    37711.072 
   55800    309.76239   -1269.1429    460.73423    592.30247    116.31457    37711.072 
   55900    304.85822   -1280.3781    477.45171    575.60858   -523.20873    37711.072 
   56000    307.56989    -1279.681    433.27892     544.3948    190.57576    37711.072 
   56100    296.80184   -1315.2423    461.75831    488.62093    8.1744625    37711.072 
   56200    294.39395   -1308.0741    454.60708     477.7497   -218.97794    37711.072 
   56300    296.41236   -1333.0951    433.64248     440.8911    117.05115    37711.072 
   56400     305.7885   -1366.8197    418.89159    434.81346    336.69877    37711.072 
   56500     297.4864   -1356.0313    453.53931    442.70847    36.781444    37711.072 
   56600    297.01941   -1306.7444    439.44406    475.78838   -37.803918    37711.072 
   56700    292.25947   -1303.6558     446.3699    464.27891    -333.6512    37711.072 
   56800    304.99582    -1337.313    485.47616    527.32039   -348.09889    37711.072 
   56900    303.01801   -1330.9101    474.18597    513.48965   -255.82849    37711.072 
   57000    301.09377   -1305.4785    441.57149    497.60552    -66.96771    37711.072 
   57100    296.00961   -1331.9903    428.23337    434.76563    309.71776    37711.072 
   57200    294.13861   -1350.7561    446.14886    425.45489    253.94582    37711.072 
   57300    296.53095   -1358.4511    448.84416    431.27311   -616.88202    37711.072 
   57400    294.84074   -1340.4082    439.05726    431.88614   -553.44049    37711.072 
   57500    308.83195   -1307.7498    433.24828    522.00222    559.92338    37711.072 
   57600    301.66091   -1292.1793    462.68709    534.58486    196.00144    37711.072 
   57700    290.95715   -1352.1787    445.28331    408.78048     553.0863    37711.072 
   57800    298.93123   -1353.3384    463.79691    462.19226    486.06362    37711.072 
   57900    291.36116    -1309.412     448.8973    456.98809    246.13012    37711.072 
   58000    305.74989   -1310.6432    476.96468    548.88845   -52.435914    37711.072 
   58100    295.77135   -1336.1467    454.12133    455.41984    199.14237    37711.072 
   58200    294.21549   -1261.5365    496.04643    564.91971   -396.65114    37711.072 
   58300    294.11769   -1280.0305    455.98799    505.92496    366.10339    37711.072 
   58400    304.20006   -1316.5599    454.03562    513.03463    82.149955    37711.072 
   58500    291.73185   -1342.4512    467.30894    444.03673   -381.96275    37711.072 
   58600    302.46377   -1289.1026    464.67453    543.27952    410.22259    37711.072 
   58700    297.07495   -1288.0469    496.79231    552.08528    231.02478    37711.072 
   58800     300.9394   -1288.0863    474.18113    546.90928    81.922395    37711.072 
   58900    302.87101   -1321.4347    463.66312    511.77745    447.04317    37711.072 
   59000    298.29517    -1315.817    442.10587    475.14652    517.69212    37711.072 
   59100    302.58664   -1337.7766    454.83261     485.3192    283.31436    37711.072 
   59200    305.38147   -1335.3506    460.91922    506.46972    521.93325    37711.072 
   59300     297.4053   -1305.1547     449.6852    489.36418    346.75324    37711.072 
   59400    302.04816   -1315.2001    484.25775    534.88581    -68.22272    37711.072 
   59500    302.62391   -1335.1962     481.1211    514.35658   -325.69051    37711.072 
   59600    288.79578   -1338.9212    474.73572    441.71696   -534.01546    37711.072 
   59700    286.53795   -1399.2464    468.78215    365.22853   -530.18287    37711.072 
   59800    315.43334   -1341.9259    466.59606    551.02464   -63.461608    37711.072 
   59900    294.46524   -1361.7387     465.9221    435.72254   -115.94649    37711.072 
   60000    301.46891   -1374.1384    430.19428    419.26482   -683.72028    37711.072 
   60100    302.86809   -1329.7412    453.94591     493.7405   -457.87867    37711.072 
   60200     306.4104   -1399.5984    463.59247     449.5479   -919.24752    37711.072 
   60300    295.80196   -1400.8302    441.89606    378.64939   -594.71278    37711.072 
   60400    305.70279   -1390.5748    453.44893    445.22812    -43.76911    37711.072 
   60500     293.9814   -1353.8183    494.15255     469.6854    -184.7639    37711.072 
   60600    286.69067   -1334.0309    472.88317    435.23564   -430.17313    37711.072 
   60700     297.3551   -1374.3046    444.68735    414.98944   -46.041359    37711.072 
   60800    292.91245   -1350.4964    474.65578    448.67691   -226.08175    37711.072 
   60900    306.16642   -1370.4543    461.01923    475.01547   -326.35929    37711.072 
   61000    297.27792   -1368.5704    483.22958    458.91693   -96.077241    37711.072 
   61100    307.11529   -1381.4979    448.75624    455.99954   -17.929349    37711.072 
   61200    293.27802   -1382.9876    472.79505    415.97809   -120.06819    37711.072 
   61300    299.79471   -1374.3134     458.9964    440.32137    490.73141    37711.072 
   61400     297.9986   -1390.4086    455.95319    413.06113      115.884    37711.072 
   61500    296.24377     -1429.15    449.90205    360.33345    472.24431    37711.072 
   61600    303.67373   -1374.1822    477.95912    476.95578     892.1214    37711.072 
   61700    299.34635   -1357.7792    456.24888    452.08058    492.52763    37711.072 
   61800    292.76166   -1368.8734    444.50679    399.46908     69.62906    37711.072 
   61900    294.53861   -1397.1163    460.97843    395.73302    64.846691    37711.072 
   62000    306.40763   -1394.0732     474.1361    465.60413    371.25812    37711.072 
   62100    305.10428   -1391.2024    449.01692    437.46217    523.89418    37711.072 
   62200    306.21999   -1400.4169    475.27188     459.5477   -68.525953    37711.072 
   62300    307.37141   -1370.7947    472.06301    491.16771    648.70269    37711.072 
   62400    298.80965   -1344.4178    449.91472    456.68097    -304.7964    37711.072 
   62500     295.1537    -1332.916    476.53485    478.27105   -412.65968    37711.072 
   62600    293.11064   -1310.3356    491.64451     506.7227   -216.62722    37711.072 
   62700    308.21023   -1383.2772    464.87584    475.29104   -405.24674    37711.072 
   62800      305.782   -1355.7683    461.02424    487.96818    73.148205    37711.072 
   62900    304.92733   -1368.6317     463.1735     473.3893   -206.86278    37711.072 
   63000    298.74353   -1377.3707     463.3535    436.86783   -90.219372    37711.072 
   63100    306.97821   -1371.3608    491.46664    508.22722    276.30414    37711.072 
   63200    313.10784   -1375.6468    471.95413    512.14617    733.73545    37711.072 
   63300    303.34657   -1327.1871    453.47618    497.98856    266.83377    37711.072 
   63400    309.65441   -1332.2175    479.41862    547.42396    110.07683    37711.072 
   63500      295.275   -1337.6223    454.47471    452.05315    180.51339    37711.072 
   63600    302.88338   -1393.1454    468.25119    444.71077      314.146    37711.072 
   63700    305.23969   -1374.6193    439.02004    444.66064    501.03721    37711.072 
   63800    305.19387   -1365.7649    459.72065    474.00854    347.59028    37711.072 
   63900    307.14371   -1352.5411    500.21074    536.53931   -60.290146    37711.072 
   64000    303.87246   -1352.3436     467.2327    488.96662    458.98222    37711.072 
   64100    307.15616   -1401.6997    483.11237    470.33874   -280.73434    37711.072 
   64200    309.62351   -1390.5874     454.7869    464.28261   -59.131602    37711.072 
   64300    294.66246   -1353.1769     446.5608    425.81476   -182.41675    37711.072 
   64400    306.63109   -1367.0576    479.36163    498.85578    209.12163    37711.072 
   64500    298.31859   -1362.6252    471.37086    457.70918    -129.1568    37711.072 
   64600    297.71545   -1381.3293     445.1637    410.07059    550.65729    37711.072 
   64700    302.06758   -1346.6948    491.27612    510.49735    158.62113    37711.072 
   64800    296.97832   -1325.2951    485.95537    503.56326    26.840187    37711.072 
   64900    305.08824   -1363.2459    443.62451    459.95372    615.48678    37711.072 
   65000    308.27664   -1377.7415    460.49363    476.74484   -410.91081    37711.072 
   65100     297.2339   -1346.4037     478.9669    476.62191    128.35315    37711.072 
   65200    307.35798   -1404.5087    453.25673    438.58669   -41.863561    37711.072 
   65300    300.33862   -1370.8175    468.18517     455.4655    179.91838    37711.072 
   65400    294.61984   -1338.8374    472.24894    465.64969   -291.21369    37711.072 
   65500    300.17255   -1333.3831    480.58727    504.55105    -279.5336    37711.072 
   65600    302.74625   -1292.0892    481.49658    558.39221     -262.404    37711.072 
   65700    301.68017   -1338.1274    472.02261    498.05941   -722.57279    37711.072 
   65800    292.83518   -1370.7949     468.1999    421.57314   -762.86742    37711.072 
   65900    293.86612   -1313.0845    481.67963    497.42509   -757.45164    37711.072 
   66000     308.4306   -1327.1963    474.23953     541.7321   -600.14468    37711.072 
   66100    306.75496   -1326.0089    503.23691    564.33986   -342.66359    37711.072 
   66200    291.84317   -1350.3328    465.83142    435.18101   -502.70907    37711.072 
   66300    301.42681   -1332.0843    479.10591    510.04009    228.87191    37711.072 
   66400    302.71559   -1334.6834    506.34733    540.51014    19.542272    37711.072 
   66500    307.38453   -1334.7589    483.87551    539.07533    584.33929    37711.072 
   66600    301.45248   -1388.6721    478.66279    453.12526    431.41972    37711.072 
   66700    296.39039   -1324.1059    473.98759    490.12608    851.56013    37711.072 
   66800    301.07934   -1380.9015    472.17328    452.71909    411.08552    37711.072 
   66900    303.62431    -1411.038    463.25763    425.17498    409.96699    37711.072 
   67000    288.35598   -1431.4472    467.87038    340.33684 -9.5709815e-05    37711.072 
   67100     298.0164   -1430.2483    471.98196     389.3307   -173.49639    37711.072 
   67200    297.29665    -1412.613    472.82714    404.55651    100.75809    37711.072 
   67300    306.40303   -1390.6765    476.57352    471.41745    267.73941    37711.072 
   67400    292.51224   -1388.7737    458.38537    392.31946   -167.17088    37711.072 
   67500     299.0155   -1398.5871    493.61297    447.14071      12.6046    37711.072 
   67600    303.87075    -1419.683     485.6576    440.04433    177.67942    37711.072 
   67700    305.21616   -1420.0381    467.76563    427.88105    318.68242    37711.072 
   67800    292.68729   -1402.7611    438.02805     358.7664    197.46997    37711.072 
   67900    306.75045    -1413.824    468.02214    441.28961    62.119239    37711.072 
   68000    307.91154    -1414.403    476.91182    454.85061   -156.33857    37711.072 
   68100    292.20748   -1411.2638    472.74232     382.8083    111.13686    37711.072 
   68200    296.94402   -1378.3948    466.59423     430.9473    23.268295    37711.072 
   68300     300.9017   -1334.3135    461.25664    487.58717   -249.82492    37711.072 
   68400    297.50646    -1356.235    503.46639    492.52248   -574.68257    37711.072 
   68500    292.23817    -1336.786    483.03148    467.71397   -454.43743    37711.072 
   68600    294.61324   -1311.8395    461.84599    482.21477   -149.65998    37711.072 
   68700    304.51003   -1332.4771    487.67304     532.1565   -833.13589    37711.072 
   68800    292.50911   -1342.9291    496.00671    475.77124   -592.15136    37711.072 
   68900    311.79978   -1336.0683    473.13325    546.98889   -217.43093    37711.072 
   69000    291.29579   -1330.0797    484.73859     471.8661    80.949287    37711.072 
   69100    297.82808   -1313.4177     491.8558    525.18356    499.07425    37711.072 
   69200    297.32827   -1335.1903    508.09239    517.38754     53.56807    37711.072 
   69300     313.6615    -1359.481    478.02839    536.88977   -89.535264    37711.072 
   69400    289.68905    -1328.494    469.39798    450.84566    -18.94121    37711.072 
   69500     305.2505   -1346.0627    460.54709     494.7932    174.49101    37711.072 
   69600    302.17777   -1364.3228    497.13589    499.22741    670.90926    37711.072 
   69700    309.61905   -1371.9182     468.9193    497.06397    249.62883    37711.072 
   69800    291.63926   -1390.3146    466.28919     394.7349    748.31609    37711.072 
   69900    300.95331   -1342.2783    480.35151    498.95063    273.62721    37711.072 
   70000    297.12174   -1366.2548    475.08773    452.38439    29.970442    37711.072 
   70100     296.0542   -1369.8826    474.87065    443.71225   -101.48035    37711.072 
   70200    306.38885   -1362.4365    478.03723    501.05702   -381.71905    37711.072 
   70300    294.73708    -1391.475    486.36018    427.65355   -66.954307    37711.072 
   70400    284.85244   -1386.0301    490.03696    392.07796   -217.39832    37711.072 
   70500     300.4788   -1398.8653    461.91247    421.77888   -509.62932    37711.072 
   70600    299.93834   -1365.9862     489.7172     480.0188   -710.07019    37711.072 
   70700     297.1784   -1335.9451    510.30971    518.17226   -675.26626    37711.072 
   70800    300.27272   -1378.7133    483.69101    462.77757     -401.386    37711.072 
   70900    286.06237   -1359.5696    501.69503    435.66763   -488.82292    37711.072 
   71000    302.76329   -1343.6477    500.37269    525.78691   -1019.1415    37711.072 
   71100    295.01367   -1383.6659    488.29706     438.6502   -197.36409    37711.072 
   71200    298.12271   -1392.8118    484.87039    440.13641   -417.26311    37711.072 
   71300    301.01779   -1404.9584    480.38178    436.59239   -182.35943    37711.072 
   71400    305.37928   -1391.9402    459.78789    448.73882   -271.07974    37711.072 
   71500    300.49406   -1365.0841    496.16544    489.88206   -348.01449    37711.072 
   71600    294.27725   -1375.4835    493.91899    449.12456   -493.90339    37711.072 
   71700    305.75915   -1395.8622    485.72869    472.47536   -232.40259    37711.072 
   71800    289.81319   -1357.0329    494.42575    447.89586   -274.13793    37711.072 
   71900     293.3045   -1312.0985    489.00787    503.19975   -272.52087    37711.072 
   72000     296.4344   -1363.6093     489.4065    466.24064   -427.09707    37711.072 
   72100    302.63125   -1343.5789    510.72793    535.61396    112.51219    37711.072 
   72200    297.85408   -1335.5742    496.74469    508.03352    463.60152    37711.072 
   72300     296.2546   -1340.3444    497.12199    496.40794   -136.23992    37711.072 
   72400    300.19741   -1315.8786    497.59181    539.17253    720.70994    37711.072 
   72500    303.15568   -1349.9559     502.7044    523.58482    263.28591    37711.072 
   72600    298.66398   -1371.2642    496.51477    475.77592    361.70109    37711.072 
   72700    292.40912   -1393.3412    474.06007    402.96036    440.85102    37711.072 
   72800    290.54747   -1332.2191    508.06898    489.67324   -81.182641    37711.072 
   72900    302.96819   -1347.2193    513.25667    536.02588   -191.15503    37711.072 
   73000    291.26364   -1360.8658    508.13592     464.3319   -12.092811    37711.072 
   73100    303.72066   -1359.4423    512.67043     526.6192   -251.44543    37711.072 
   73200    295.91818    -1326.133    474.94854    486.92461   -193.35009    37711.072 
   73300    308.89859   -1347.0682    478.27959    528.01646   -225.75646    37711.072 
   73400    297.80136   -1335.4263    506.04119    517.23955   -459.76937    37711.072 
   73500    311.19729    -1347.819    505.12883    564.50942   -194.85427    37711.072 
   73600    287.82748   -1351.2756    455.00424    405.25252    151.43325    37711.072 
   73700    305.99727   -1413.8735    473.84712    443.65928   -193.98489    37711.072 
   73800    297.28059   -1371.2797    476.44773    449.43784     103.9333    37711.072 
   73900    301.82962   -1380.4445    490.89712     475.2926    481.80884    37711.072 
   74000    308.41333   -1382.1151    518.54328    531.03893      185.866    37711.072 
   74100    315.64045   -1412.0048    457.71919    473.00542    147.09158    37711.072 
   74200    293.74872   -1403.8578    477.75732    402.19859    86.290674    37711.072 
   74300      309.388   -1372.0399    495.49361    522.47183    325.97292    37711.072 
   74400    301.28482    -1371.785    498.68878    489.28023    302.75228    37711.072 
   74500    310.49763   -1387.4211    460.64268    477.25734    50.775293    37711.072 
   74600    297.99236   -1390.4027    483.72549    440.81117    103.37688    37711.072 
   74700    299.09579   -1406.1537     500.0631    446.38735    551.64175    37711.072 
   74800    284.73855   -1423.2044    499.59884    363.95054    225.81494    37711.072 
   74900    286.04059   -1431.1845     530.2286    392.48789    364.04984    37711.072 
   75000    308.08681   -1397.0106    486.65965     482.7833   -1.2163922    37711.072 
   75100    296.29607   -1367.5832    513.74502    485.97976   -261.47213    37711.072 
   75200    304.57668   -1372.9118    491.77213     496.1222    83.384542    37711.072 
   75300    309.58217   -1406.1251    484.78066    478.55173    222.55706    37711.072 
   75400    295.62254   -1410.2255    484.75604    411.30276   -481.18292    37711.072 
   75500    302.91498   -1405.6376    489.92786    454.03815   -41.760396    37711.072 
   75600    299.28535   -1381.2882    496.78067    468.82753   -329.85167    37711.072 
   75700    301.23986   -1434.9299    468.22089     395.4642   -114.16941    37711.072 
   75800    297.16322   -1429.9218    481.13694    394.95414    26.790692    37711.072 
   75900    302.69252   -1445.1489    517.43959    441.03264    338.52604    37711.072 
   76000    296.69392    -1417.324    458.05711    382.35002    568.52762    37711.072 
   76100    300.16812   -1428.5459    507.40651    436.18746    47.879574    37711.072 
   76200    306.18204   -1443.0451    485.97441    427.45042     457.2405    37711.072 
   76300    304.65715     -1411.72    503.20412    469.10986    76.521405    37711.072 
   76400    299.11501   -1440.1993     494.2011    406.56664   -351.92506    37711.072 
   76500    300.38436   -1394.7298    516.69942    480.27432    120.44542    37711.072 
   76600     289.2585   -1426.5885    489.15931    370.56564   -739.24294    37711.072 
   76700    291.62216   -1397.7684    489.88818    410.80276    -2.403954    37711.072 
   76800     300.9913   -1444.1519    503.42739    420.32465    126.00275    37711.072 
   76900    307.50737   -1407.4253    485.71404    468.80283   -2.9851548    37711.072 
   77000    303.54796   -1336.1161    493.22325    529.71727   -535.57011    37711.072 
   77100    306.98702   -1359.2841     505.6742    534.55123   -131.90751    37711.072 
   77200    310.02722   -1341.7074    509.89922    570.10049   -234.58639    37711.072 
   77300     291.0467   -1367.2531    494.06106    442.88877   -121.67212    37711.072 
   77400    290.83134   -1402.7731    525.83566    438.16955   -323.56854    37711.072 
   77500    297.65396   -1415.0811    501.21332    432.09037   -244.73298    37711.072 
   77600    306.36915   -1406.6498     485.0969    463.81438    -74.25504    37711.072 
   77700    305.24612   -1386.3145    472.00282    465.97738    128.20709    37711.072 
   77800    312.62475   -1398.8661    497.41237     512.2006     153.2208    37711.072 
   77900    312.35323   -1433.4618    472.99512    451.95988   -358.14932    37711.072 
   78000    291.42962   -1389.8622    508.85065    436.80083    108.41037    37711.072 
   78100    289.89569   -1418.8752    488.69861    380.69949   -279.23956    37711.072 
   78200    301.97396   -1425.0799    476.89118    417.30394    -580.3392    37711.072 
   78300    310.13308   -1412.4779    480.97379     470.8832    -167.4023    37711.072 
   78400    305.98563   -1421.9882    480.63341    442.27818    35.853348    37711.072 
   78500    289.95719   -1490.8868    499.10249    319.36987   -130.74454    37711.072 
   78600    292.29167   -1403.3149    505.39552    423.79107    93.538998    37711.072 
   78700    303.56238   -1405.8844    533.25925    500.05018    488.26374    37711.072 
   78800    301.74401   -1433.0611    514.52275    445.91456    338.67059    37711.072 
   78900     299.9355   -1450.9314    495.86291    401.20653    390.45191    37711.072 
   79000    301.13083   -1421.4269     494.0459    434.29918    303.29749    37711.072 
   79100    298.33491    -1463.626    503.91905    389.33032     117.0553    37711.072 
   79200    292.50218   -1447.2115     501.5274    376.97826    376.66253    37711.072 
   79300    299.59129   -1416.4869     482.2105    420.44212    288.49402    37711.072 
   79400    303.13777   -1429.0276    508.76119    450.48891    17.449363    37711.072 
   79500    298.40998   -1416.5107     516.3174    449.18348   -239.45499    37711.072 
   79600    296.67665   -1437.9664    498.65825    402.23062   -600.35077    37711.072 
   79700    300.09637   -1443.8476    481.18376     394.3386   -107.55409    37711.072 
   79800    294.16582   -1478.7243    494.61223    346.07308   -990.37985    37711.072 
   79900    320.83507   -1487.2797    486.00883    449.50964   -649.06896    37711.072 
   80000    301.09529   -1479.7698    493.77941    375.52905   -586.67202    37711.072 
   80100    300.38757   -1435.8559    510.12968    432.59302   -753.92258    37711.072 
   80200    303.45561   -1452.0958    508.13804    428.23474   -178.57135    37711.072 
   80300     301.2453   -1463.9334    509.44773    407.71206     318.4657    37711.072 
   80400    300.26934   -1488.8829    493.51017    362.41192    532.85646    37711.072 
   80500      309.713   -1491.8779    448.59866    357.20851    366.31657    37711.072 
   80600    306.93723   -1510.5981    468.24808    345.58601    403.21223    37711.072 
   80700    302.19362   -1501.0644    485.60854    351.03013    900.30772    37711.072 
   80800    307.60591   -1485.2652    482.89381    388.58832    745.88535    37711.072 
   80900    303.36789   -1470.2672    510.91937    412.44807    345.29991    37711.072 
   81000    298.00767   -1425.4593    478.29034    400.38865    605.08301    37711.072 
   81100    304.90846   -1465.6692     482.3553     395.4483    45.291786    37711.072 
   81200    301.03042   -1431.6694    511.47802    441.03467    109.60788    37711.072 
   81300    314.42371   -1412.6267    492.41255    501.57497    210.67945    37711.072 
   81400    304.20316   -1419.1257    493.15884    449.60607   -121.88277    37711.072 
   81500    299.43227   -1442.2691    506.74904    418.47935    180.88556    37711.072 
   81600    297.74369   -1388.3942    491.03868    449.00833   -307.68343    37711.072 
   81700    308.61031   -1380.9045    519.13864    533.73568   -177.06858    37711.072 
   81800    293.29832   -1387.7073    489.36174    427.91687   -443.18604    37711.072 
   81900    306.40284   -1397.7249    506.25501    494.04974   -639.49544    37711.072 
   82000    304.99258   -1403.4343    489.81512     465.5234    260.59176    37711.072 
   82100    310.23104   -1381.8578    494.91032    515.88284   -38.284768    37711.072 
   82200    283.46217   -1410.8526     498.0027    368.93452    377.93183    37711.072 
   82300    305.47904   -1408.7796    493.42223    465.98492     248.2383    37711.072 
   82400    304.81098   -1416.8057    508.73227    470.24789    254.17594    37711.072 
   82500     291.7644   -1407.1058    487.20291    399.42332    336.04322    37711.072 
   82600    315.07447   -1412.3929    477.40831    489.74713   -161.37504    37711.072 
   82700    287.92941   -1390.8851    502.17594    413.27558   -361.58813    37711.072 
   82800    296.44361   -1426.6796    507.50926    421.31468   -117.42653    37711.072 
   82900    298.84289   -1437.4069    497.37271    411.30016    62.912511    37711.072 
   83000    298.38069   -1429.5942    488.95978    408.60995   -82.123949    37711.072 
   83100    291.30755   -1444.2007    491.66634    364.72607    487.24339    37711.072 
   83200    293.25552   -1475.7492    501.76549    352.08515   -72.558862    37711.072 
   83300    294.00496   -1447.3054    502.91963    385.07204     573.0173    37711.072 
   83400    308.91884    -1478.667    495.52751    413.75719   -246.40449    37711.072 
   83500    295.54541   -1467.1664    486.58274    355.83986   -601.48254    37711.072 
   83600    293.16616   -1439.8369    468.83124    354.65913   -245.80794    37711.072 
   83700    298.77921   -1443.5425     487.2873    394.79113   -339.39907    37711.072 
   83800    300.82907    -1407.175    499.10919     452.2498   -191.61362    37711.072 
   83900    300.98865   -1432.3289    475.33532    404.04362   -730.31607    37711.072 
   84000    296.43982   -1432.8641    495.52317    403.12701   -533.47276    37711.072 
   84100    294.00287   -1454.6728    498.03666    372.81216    -422.8548    37711.072 
   84200    307.49033   -1425.1591    490.22174    455.49975     288.5257    37711.072 
   84300    301.66568   -1435.6609    484.43375     412.8715     191.3768    37711.072 
   84400    308.36804   -1405.1648    486.65123    475.89246     511.3991    37711.072 
   84500    294.70503   -1455.1679    496.84708    374.30255    170.48751    37711.072 
   84600    294.35652   -1491.0059    471.13792    311.17951    509.69495    37711.072 
   84700    290.55175   -1446.5276      475.147    342.46214    520.18928    37711.072 
   84800    300.81134   -1450.4386    477.99745    387.79431    821.12093    37711.072 
   84900     297.4289    -1431.125    487.04317    400.85861    366.76957    37711.072 
   85000    308.45879   -1417.9154    491.20415    468.10509    596.80829    37711.072 
   85100    295.83659   -1418.0502    509.38153    429.07154    353.42997    37711.072 
   85200    305.58546   -1409.8452    488.87735    460.85565    32.474651    37711.072 
   85300    294.84217   -1394.4611    492.75764    431.54009    52.337266    37711.072 
   85400    288.11067   -1405.3573     485.6249    383.07198   -311.60907    37711.072 
   85500    307.73517   -1374.8887    487.03048    503.68598   -188.61865    37711.072 
   85600    296.16417   -1392.7704    478.37623    424.82725    161.52263    37711.072 
   85700    302.55824   -1444.6309     530.3795    453.88336    66.787728    37711.072 
   85800    299.10947   -1392.3253    500.61089    460.82537    92.726549    37711.072 
   85900    303.34728   -1380.6125    508.80344     499.8936     32.68614    37711.072 
   86000    287.70956   -1400.8312    479.90077    380.06025    -546.4106    37711.072 
   86100     304.5071   -1441.9949    493.15269    428.10509    -889.9761    37711.072 
   86200    296.59171   -1398.1783    495.81215    438.78862   -214.56113    37711.072 
   86300     293.1914   -1402.9712    528.25836     451.0661    100.81451    37711.072 
   86400    306.47287   -1409.5897    485.62351    461.87006    167.96006    37711.072 
   86500    304.75654   -1414.2963    486.20185    449.98073    93.632153    37711.072 
   86600    304.32999   -1408.8219    502.11048    469.43496   -405.66995    37711.072 
   86700    307.58511   -1399.7302    502.44953    493.58503   -246.79105    37711.072 
   86800    294.46126    -1402.365    488.99095    418.14701    50.793507    37711.072 
   86900    304.20744    -1419.397    505.55952    461.75472   -65.138263    37711.072 
   87000    303.25652   -1403.7856    506.87509    474.38176    65.913177    37711.072 
   87100    303.84094   -1396.4007    478.41073    455.94498   -73.775518    37711.072 
   87200    290.06705   -1403.2455    508.97252    417.37796    1.7995997    37711.072 
   87300    299.97649   -1394.7463    463.29042    425.00449   -166.48875    37711.072 
   87400    302.42586   -1423.2895    492.48926    436.73586   -84.285998    37711.072 
   87500    301.42486   -1413.2604    506.85372    456.60306    48.490677    37711.072 
   87600    304.46683   -1388.7145    511.82371    499.87433   -48.265362    37711.072 
   87700    295.38979    -1398.302    481.66652    419.08425    346.48624    37711.072 
   87800     291.8641    -1437.456    500.38601    382.70699   -204.82344    37711.072 
   87900    304.08729   -1430.8843    503.89586    448.06048    104.49046    37711.072 
   88000    306.70549   -1426.6615     513.2266    473.45325    48.587312    37711.072 
   88100    297.81585   -1418.4741    498.17318    426.38927    299.36338    37711.072 
   88200    303.80286   -1451.0079    481.86373     404.6186    329.47455    37711.072 
   88300    296.89636   -1473.5352    506.38231    375.37949    798.79858    37711.072 
   88400    290.25304   -1414.3717     485.0994    383.21972    421.91234    37711.072 
   88500    303.81935   -1384.9636    488.34509    477.21884    463.90466    37711.072 
   88600    298.12528   -1421.2753     488.6743    415.48837    198.07596    37711.072 
   88700    310.71513   -1393.3642    504.45759    516.11264   -182.67211    37711.072 
   88800    295.40904   -1384.6025    498.78255    449.98692   -238.03346    37711.072 
   88900    297.18801   -1394.9382    510.62034    459.53328   -143.02167    37711.072 
   89000    304.91899   -1387.4218    494.71244    486.10045   -311.26235    37711.072 
   89100    295.40794   -1404.2842    517.15171    448.66941   -256.53837    37711.072 
   89200    296.41501   -1438.2094    516.18099    418.32732   -241.25878    37711.072 
   89300    306.08002   -1415.5538    502.08536    470.59135     348.5937    37711.072 
   89400     297.1549   -1391.0944     497.7788    450.38588   -32.096649    37711.072 
   89500    297.97994   -1430.5323    486.78927    403.68909   -63.751115    37711.072 
   89600    305.12925   -1423.0743    487.61343    444.29969     96.11119    37711.072 
   89700    304.28209   -1427.5235    499.70632    448.11265    365.49886    37711.072 
   89800    302.82727   -1472.0471    487.36555    384.66971    784.40141    37711.072 
   89900    294.83433    -1470.861    496.38172     358.7288    226.93617    37711.072 
   90000    296.01408   -1513.5237    465.80184    290.82089   -290.26543    37711.072 
   90100    298.06914   -1464.9524    489.59739    372.48054    208.21702    37711.072 
   90200    294.34837   -1429.2701    508.81311    410.55363   -48.221988    37711.072 
   90300    298.49227   -1465.6873    490.76344    374.82502     -413.991    37711.072 
   90400    291.92866   -1413.9877     493.6287    399.71001   -400.33987    37711.072 
   90500    305.06349   -1405.2362    504.46411    478.69108    55.684065    37711.072 
   90600    305.03985   -1432.1812    510.88101    458.05609   -371.11778    37711.072 
   90700     291.0848    -1398.834    510.35541    427.77455   -354.11128    37711.072 
   90800    299.61783   -1440.8385    499.14878    413.14878      -134.67    37711.072 
[...]
  984500    310.62749    -1431.109    485.76386    459.27784   -114.49499    37711.072 
  984600    299.52788   -1418.5526     539.5161    475.39531     -586.214    37711.072 
  984700    294.58522   -1397.1218    505.44181    440.40167   -564.67209    37711.072 
  984800    294.62728   -1410.1833    500.89808    422.98659   -763.12219    37711.072 
  984900    294.49066   -1415.9033      541.492    457.24273   -596.63806    37711.072 
  985000    307.18714   -1437.7332    531.85596     483.1889   -69.282893    37711.072 
  985100    294.66652   -1432.1648    496.55272    396.83715   -34.959542    37711.072 
  985200    307.82584     -1443.31    504.15828    452.80247    172.82898    37711.072 
  985300    301.97745   -1444.2728    523.63873    444.87441    245.51213    37711.072 
  985400    311.36253   -1414.9474    504.10747    497.10679    307.53869    37711.072 
  985500    296.72334   -1411.7943    516.01862    445.97425    141.56022    37711.072 
  985600    312.62908   -1471.7789    492.09745    433.99253    18.736518    37711.072 
  985700    299.49036    -1476.265    514.71672    392.71383     -77.1986    37711.072 
  985800    300.97137   -1449.6505    501.95365    413.26221   -23.371117    37711.072 
  985900    296.28503   -1444.9154    517.04925    411.90182    36.275314    37711.072 
  986000    292.22151   -1473.6653    524.31257    372.04049   -313.07874    37711.072 
  986100    307.89977   -1513.6737    515.60405    394.21893    191.17571    37711.072 
  986200    297.36843   -1455.2422    515.76366    405.18849     67.12159    37711.072 
  986300    310.22632   -1473.1985    514.45944    444.06991    140.76653    37711.072 
  986400     302.4594   -1454.3482    521.16949    434.50906    270.01864    37711.072 
  986500    298.64556   -1447.8957    522.17274    424.71908    633.39184    37711.072 
  986600    301.04446   -1454.9798     524.1556    430.46533    400.83022    37711.072 
  986700    303.01883   -1457.4376    516.36289    429.14281    116.31655    37711.072 
  986800    295.57681    -1471.704    514.98915    379.85065   -235.22551    37711.072 
  986900    303.03275    -1483.555    510.99999    397.72542    152.61855    37711.072 
  987000    301.15053   -1499.4851    519.49788    381.78205    591.42809    37711.072 
  987100    299.40395    -1473.314    491.26922    371.82665      143.241    37711.072 
  987200    290.78873   -1470.5664    542.11254    386.46045    94.652569    37711.072 
  987300    300.06931   -1482.3275    535.51544    410.06801    458.24636    37711.072 
  987400    294.67576   -1442.1581    501.26643    391.59933    478.31389    37711.072 
  987500    291.25961   -1486.3254    507.52304    338.24125    457.60958    37711.072 
  987600    307.94644   -1496.1792     494.8883    391.20869    322.18181    37711.072 
  987700    292.47257   -1513.8089    490.70611     299.4257   -165.08387    37711.072 
  987800    309.42882   -1502.1476    516.00492    413.06001    95.045272    37711.072 
  987900    295.75533   -1454.4161    503.76271    386.71931    179.96477    37711.072 
  988000    308.52062    -1455.026    525.65534    465.72528   -102.83822    37711.072 
  988100    310.38587   -1456.6728    495.96514    442.82271    9.5175387    37711.072 
  988200    295.50123    -1481.308    521.58914    376.50485   -54.725083    37711.072 
  988300    298.78665   -1501.8867    511.79951    360.99287    158.75957    37711.072 
  988400    296.57965   -1508.7467    477.19678    309.55028   -45.383695    37711.072 
  988500    296.00733   -1496.7974    524.35641    366.07129    2.4454271    37711.072 
  988600    303.74295    -1497.331    523.47742    399.63827   -153.19197    37711.072 
  988700    291.76337   -1464.5474    512.56667    367.34082     -166.314    37711.072 
  988800    307.01429   -1471.9636    512.04248    428.36336   -514.07286    37711.072 
  988900    306.16662   -1487.9962    499.93102    396.38623    209.76643    37711.072 
  989000     295.0239   -1440.2273    537.40453    431.24254   -96.607056    37711.072 
  989100    300.45976   -1475.3553    514.38525    397.67554   -85.215744    37711.072 
  989200    301.03775   -1473.5502     497.3211    385.03016   -165.10913    37711.072 
  989300     290.7736   -1468.2299    502.95912     349.5751    230.89528    37711.072 
  989400    300.38217   -1474.9249    542.56084    425.93072    72.264147    37711.072 
  989500    293.28252   -1480.9814    526.55455    371.76414   -282.41844    37711.072 
  989600    305.55488   -1422.8469    494.20357    453.04187   -249.72696    37711.072 
  989700    294.14399   -1474.7503    482.48631    337.82243     100.4504    37711.072 
  989800     297.7309   -1464.2603    514.58183    396.62754    -161.7387    37711.072 
  989900    302.70587   -1469.5338    527.49295    426.76148    55.260014    37711.072 
  990000    298.80029   -1484.9122    526.09383    392.32335   -307.97944    37711.072 
  990100    300.55621   -1488.1471    522.32324    393.25793   -462.62622    37711.072 
  990200    297.02722   -1435.8381    522.90188    430.18793     130.7599    37711.072 
  990300     305.6741   -1472.3393    527.91452     437.7995    108.12836    37711.072 
  990400    298.51593   -1487.1619    502.95691    365.65083      72.0455    37711.072 
  990500    307.41312   -1497.6723    491.02852    383.44416   -129.97414    37711.072 
  990600    292.08779   -1500.1752    506.04383    326.65712   -145.57294    37711.072 
  990700    292.61397   -1490.7048    524.31331    356.77635     334.8462    37711.072 
  990800    299.71846   -1483.3821    520.87048    392.78192    72.406471    37711.072 
  990900    300.29071   -1494.9219    530.79215    393.75141    221.29836    37711.072 
  991000    305.74484   -1494.1992    517.59726    405.94222    556.99003    37711.072 
  991100    295.77371   -1505.2006    529.21586    361.47106    632.34873    37711.072 
  991200    299.04164   -1546.6833    498.50534    304.05511    188.90194    37711.072 
  991300    297.56138   -1555.6267    531.25466    321.16743    633.82116    37711.072 
  991400    291.45239   -1501.0186    527.23672    344.13345    -147.2756    37711.072 
  991500    295.49807   -1483.6016     522.4416    375.04939   -267.68288    37711.072 
  991600    302.62651   -1463.3168     489.9922    395.11879   -740.73405    37711.072 
  991700    304.11526    -1462.357    502.59627    415.41465   -762.82982    37711.072 
  991800    294.62885   -1520.0152    491.90654    304.17027   -408.58379    37711.072 
  991900    287.61994   -1513.8415     525.0535    311.79746   -695.67834    37711.072 
  992000    301.61897   -1474.5392    534.89113    424.23943   -276.37564    37711.072 
  992100    294.54041   -1450.4898    518.29642    399.68563   -302.72142    37711.072 
  992200    313.90049   -1440.8298    524.49904    503.09238   -693.61208    37711.072 
  992300    301.88271   -1448.0965    530.77387    447.75743   -207.44339    37711.072 
  992400    294.51414   -1440.5225    518.24869    409.48634   -410.18644    37711.072 
  992500    304.52543   -1454.4752    497.94164    420.49663    394.04872    37711.072 
  992600    312.63732   -1473.4406    523.96246    464.23303    256.32361    37711.072 
  992700    311.67565   -1510.8088    498.89672    397.45054    771.87303    37711.072 
  992800    287.16946   -1456.6826     524.0512    365.91702   -185.65893    37711.072 
  992900    291.38336   -1435.0935    508.66878    391.17842   -133.18837    37711.072 
  993000     296.1544    -1480.279    503.00097    361.89925   -420.40187    37711.072 
  993100    312.75538   -1436.1217    508.22153    486.34494    -186.4416    37711.072 
  993200    313.15938   -1445.3581    514.20221      484.916   -128.37583    37711.072 
  993300    298.86145   -1414.3562    521.39944    458.46146   -75.506601    37711.072 
  993400    298.14502   -1474.2909    525.58182    399.46951     335.8907    37711.072 
  993500    302.96032   -1479.4851    495.67947    386.14726   -241.55695    37711.072 
  993600    305.73223   -1499.3794     501.0539    384.16166   -304.58618    37711.072 
  993700    295.93243   -1449.6602    492.37278     380.8861   -442.40743    37711.072 
  993800    304.80358   -1437.2926    496.39885    437.39415   -184.63868    37711.072 
  993900    292.42021   -1422.7853    531.20769    430.71407    323.19202    37711.072 
  994000     294.7153   -1422.8165    515.83079    425.68418   -60.741508    37711.072 
  994100     303.9154   -1445.9293    508.88604    437.22836    370.28306    37711.072 
  994200    292.49158   -1431.8107     501.4448    392.24849   -53.225768    37711.072 
  994300    295.19368   -1430.0608    488.37838    393.15063   -118.86937    37711.072 
  994400    302.88547    -1409.149    552.60083    513.06625    -33.09275    37711.072 
  994500    295.25052   -1423.6133    501.80344    413.28019   -684.88184    37711.072 
  994600    292.26049   -1421.4739     521.7122    421.80775    -556.2602    37711.072 
  994700    304.13501   -1395.7972    503.54322    483.01075   -417.09176    37711.072 
  994800    303.62388   -1416.6349    557.42416    513.74271    -41.73662    37711.072 
  994900    304.50803   -1477.5376    496.55507    395.96899  -0.60835652    37711.072 
  995000    299.20202   -1443.8842    543.26425    452.33834     214.4811    37711.072 
  995100    309.35136    -1421.289    529.69883    507.26235    94.975231    37711.072 
  995200    303.02739   -1434.4581    535.15547    470.95358   -48.030145    37711.072 
  995300    299.87893   -1427.5692    501.09521    429.54519   -256.16205    37711.072 
  995400    294.54885    -1438.166    532.32655    426.07774      -500.67    37711.072 
  995500    306.27606   -1385.3637    539.89044    539.47301   -857.50578    37711.072 
  995600    295.88373   -1407.0344    506.02738    436.94635   -612.74948    37711.072 
  995700    307.95247   -1423.9419     526.6762    495.26107   -824.53713    37711.072 
  995800    300.17225   -1425.1578    526.64028    458.82799   -874.11938    37711.072 
  995900     299.1576   -1411.6654    541.75444    482.84643   -350.18786    37711.072 
  996000    291.97648   -1448.6425    512.89926    384.54195   -536.83913    37711.072 
  996100    301.31975    -1447.973    525.80263    440.36401   -48.006109    37711.072 
  996200    298.32706   -1406.2119    531.22828    474.01816    57.294636    37711.072 
  996300    306.15953   -1462.3451    541.87209    463.94635    693.97086    37711.072 
  996400    300.75194   -1451.0276    535.00064    443.93988    600.62022    37711.072 
  996500    303.42895    -1445.191    530.73658    457.61754    379.64688    37711.072 
  996600    292.86515   -1438.8854    504.02181    389.44007    316.34857    37711.072 
  996700    291.16868    -1448.942    537.32039    405.01074    567.35828    37711.072 
  996800     298.9754   -1456.8974    537.07259    432.10868   -108.03705    37711.072 
  996900    304.43745    -1506.562    535.73982    405.81011     275.8073    37711.072 
  997000    300.67033   -1501.7986    508.95143     366.7506    390.24404    37711.072 
  997100    307.72033   -1510.4196    503.07916    384.13666    590.51647    37711.072 
  997200    298.70088   -1499.3634    530.36974    381.69859   -271.70663    37711.072 
  997300    300.93911   -1502.6923    510.14972    368.27061    12.154099    37711.072 
  997400    298.01897   -1534.2185    529.59555    342.98568    144.68514    37711.072 
  997500    296.09222   -1522.5204    520.31595    336.69164    488.91081    37711.072 
  997600    295.02044   -1511.6274    507.46519    329.88744    208.87025    37711.072 
  997700    300.01712   -1496.1824    550.44611    410.90775     171.0863    37711.072 
  997800    303.20211   -1463.0585    518.08926    426.07698    36.353163    37711.072 
  997900    298.88984    -1480.568    499.89677    370.87542    353.86744    37711.072 
  998000    298.52946   -1469.9089    528.68845    408.69655    22.305837    37711.072 
  998100    302.20255   -1493.8458    510.73104    383.41161    145.20195    37711.072 
  998200    299.00175   -1474.6007    494.69704    372.14903   -48.309104    37711.072 
  998300    303.65199   -1493.5033    513.28941    392.86664   -511.75633    37711.072 
  998400    294.18878   -1482.8197    484.49979    331.96905   -682.46059    37711.072 
  998500     298.5051   -1452.7609    534.21101      431.257    144.66326    37711.072 
  998600    300.11945   -1475.7091    526.12944    407.52706    414.02396    37711.072 
  998700    290.76358    -1484.761    531.09869    361.13828   -24.393869    37711.072 
  998800    301.04032   -1475.6099    511.80993    397.47085   -275.53804    37711.072 
  998900    304.55315   -1432.2757    505.04607    449.92589   -55.758292    37711.072 
  999000    305.33492     -1464.11    524.28033    440.86096   -527.45297    37711.072 
  999100    300.94002   -1501.1566    506.36285    366.02358   -506.25391    37711.072 
  999200    301.12046   -1473.3751     554.5262    442.78433    375.24648    37711.072 
  999300    298.45852    -1512.676    530.62789    367.54813    278.14571    37711.072 
  999400    304.56569   -1491.6682    542.55455    428.09856   -234.80705    37711.072 
  999500     310.1175   -1464.0842    526.97063    465.20324    161.53561    37711.072 
  999600    292.16394   -1474.0526     528.5083    375.58858   -52.543309    37711.072 
  999700    309.61825   -1496.8018    535.35857    438.61608    302.79474    37711.072 
  999800    300.04933     -1440.19    516.63316     433.2329    799.91193    37711.072 
  999900    310.88113   -1433.2566    523.94565    496.45897    417.04455    37711.072 
 1000000    310.17381   -1430.5163    528.04895    500.10417    1102.3321    37711.072 
 1000100    307.66885   -1486.7743    519.11246    423.58248    959.92353    37711.072 
 1000200    299.87786   -1422.0151    544.75167    478.75089    808.29266    37711.072 
 1000300    296.82914   -1392.7128    524.13775    473.65336    628.34061    37711.072 
 1000400    305.89759   -1421.7164    540.56147    502.08003    684.99488    37711.072 
 1000500    300.09474     -1489.03    532.76739    400.73245    558.57967    37711.072 
 1000600    294.57475   -1463.3473    540.55484    409.24181     718.2125    37711.072 
 1000700    298.10696   -1458.1508    526.64995    416.50569    471.51404    37711.072 
 1000800    303.83963   -1391.0406    530.29744    513.18589    426.40333    37711.072 
 1000900    295.32196   -1470.4912     524.5938    389.51566    477.76581    37711.072 
 1001000     308.4831   -1424.5942    558.59542    528.92749    336.24623    37711.072 
 1001100     305.7568   -1427.2014     531.3023    486.69913    451.68622    37711.072 
 1001200    301.07178   -1481.9006    544.30464    423.81719    140.59982    37711.072 
 1001300    306.02248    -1500.054     519.2922     403.0379    201.00081    37711.072 
 1001400    300.53354   -1466.8248    530.31577    422.47028   -5.1844452    37711.072 
 1001500     296.0237   -1418.4672    561.31737    481.43643   -511.21053    37711.072 
 1001600    301.86755   -1410.6018    529.33782    483.74753   -693.67203    37711.072 
 1001700    292.08586   -1413.9229    507.12662     413.9835   -946.97954    37711.072 
 1001800    302.38434    -1404.224    565.31569    528.44002   -891.50456    37711.072 
 1001900    295.70825   -1427.0507    530.35963    440.46875   -431.22179    37711.072 
 1002000    294.26154   -1451.0331    541.22054    420.80538   -918.36066    37711.072 
 1002100    305.97816   -1442.9823     493.2314    433.84835   -373.81308    37711.072 
 1002200    304.98323   -1414.6511    530.67538    495.12449   -354.94333    37711.072 
 1002300    305.13718   -1428.2371    521.35681    472.91615   -506.68426    37711.072 
 1002400    292.20484   -1438.4273    532.04482    414.93529   -282.39504    37711.072 
 1002500    289.27387   -1474.8228    557.33105     390.5725   -72.626412    37711.072 
 1002600    295.99428   -1448.1621    530.29783    420.58896    655.03121    37711.072 
 1002700    311.14319   -1425.3708    520.53819    502.12234    271.67833    37711.072 
 1002800    296.83206    -1422.742    534.86831     454.3679    223.46593    37711.072 
 1002900     303.5815   -1472.7234    529.93866    429.97704    9.2156765    37711.072 
 1003000    301.18968   -1500.6343    493.62436    354.93632    311.39134    37711.072 
 1003100     301.9419   -1476.9505    507.70093    396.09816    225.55145    37711.072 
 1003200    297.18426   -1467.0649    534.90116    411.67047    550.72188    37711.072 
 1003300    298.37101   -1449.8247    531.79658    431.17244    497.95669    37711.072 
 1003400    294.07194   -1430.7552    547.69981    446.70528    140.99832    37711.072 
 1003500    302.54367   -1415.4917    525.73154    478.30866    528.88738    37711.072 
 1003600    295.84183   -1491.3805    509.18521    355.56858   -522.24312    37711.072 
 1003700     299.6783   -1436.5851    545.86178    464.38857   -245.41284    37711.072 
 1003800    301.71563   -1459.0963    501.08809    406.31629    157.66262    37711.072 
 1003900    296.41484   -1394.7116    547.47377    493.11716   -324.20078    37711.072 
 1004000    301.45928   -1425.7882    525.84622    463.22337    19.457661    37711.072 
 1004100    299.40883   -1401.8742    493.09861    445.11788    204.86506    37711.072 
 1004200    305.83883   -1419.8359    542.27431    505.40763   -471.56117    37711.072 
 1004300      290.051   -1478.2426    517.47575    350.81155   -501.27194    37711.072 
 1004400    292.67359   -1467.3316    517.27334    373.37921    65.106969    37711.072 
 1004500    294.04874    -1503.763     540.9533    366.84597     234.5543    37711.072 
 1004600    307.28716   -1478.7853    518.79378    429.52686    200.63015    37711.072 
 1004700    299.49398   -1486.6207    531.08351     398.7413    255.47829    37711.072 
 1004800    306.63616    -1498.719    508.49088    396.34651    10.756863    37711.072 
 1004900    297.98239   -1461.4572    534.86127    420.84735    -731.0357    37711.072 
 1005000    295.33701   -1484.5165    507.67008     358.6347   -319.47868    37711.072 
 1005100    302.20337   -1466.8233    517.88435    417.59106   -430.27257    37711.072 
 1005200    304.52374   -1475.8601    511.03549    412.19791   -451.79824    37711.072 
 1005300    299.14648   -1456.1498    499.74665    396.30395    -524.3446    37711.072 
 1005400    294.71955    -1476.395    508.42189    364.71597   -552.49043    37711.072 
 1005500    300.04612   -1458.9897    529.01862    426.80413   -254.15068    37711.072 
 1005538    305.16993   -1508.6172    500.22523    371.55254   -143.80006    37711.072 
Loop time of 601.781 on 32 procs for 1000000 steps with 1518 atoms

Performance: 143.574 ns/day, 0.167 hours/ns, 1661.735 timesteps/s
100.0% CPU use with 32 MPI tasks x no OpenMP threads

MPI task timing breakdown:
Section |  min time  |  avg time  |  max time  |%varavg| %total
---------------------------------------------------------------
Pair    | 238.99     | 272.13     | 319.52     | 118.5 | 45.22
Bond    | 1.4305     | 1.621      | 1.9653     |   8.5 |  0.27
Neigh   | 39.408     | 39.461     | 39.517     |   0.5 |  6.56
Comm    | 228.64     | 276.21     | 309.47     | 117.8 | 45.90
Output  | 0.39023    | 0.40649    | 0.82419    |  11.8 |  0.07
Modify  | 8.9377     | 9.174      | 9.3615     |   3.8 |  1.52
Other   |            | 2.782      |            |       |  0.46

Nlocal:        47.4375 ave          87 max          15 min
Histogram: 2 1 5 8 3 6 2 2 1 2
Nghost:        2003.19 ave        2076 max        1926 min
Histogram: 3 2 6 2 3 1 3 4 5 3
Neighs:        5265.94 ave       10938 max        1381 min
Histogram: 3 2 7 5 3 6 2 3 0 1

Total # of neighbors = 168510
Ave neighs/atom = 111.00791
Ave special neighs/atom = 2.0434783
Neighbor list builds = 49743
Dangerous builds = 0
The system volume is 37711.0715694461
Lattice vectors
33.5343292759548 0 0
0 33.5343292759548 0
0 0 33.5343292759548
Total wall time: 0:10:06
