LAMMPS data file
 1517 atoms
 1016 bonds
 527 angles
 28 dihedrals
 3 impropers
 7 atom types
 7 bond types
 4 angle types
 2 dihedral types
 1 improper types
 0 15 xlo xhi
 0 15 ylo yhi
 0 15 zlo zhi
 0 0 0 xy xz yz

# Atom types
#
# 1 C_3
# 2 N_2
# 3 O_2
# 4 C_2
# 5 H_
# 6 H__HB
# 7 O_3

# Bond Coeffs
#
# 1 C_3*N_2
# 2 C_3*H_
# 3 O_2*C_2
# 4 N_2*C_2
# 5 C_3*C_2
# 6 N_2*H__HB
# 7 O_3*H__HB

# Angle Coeffs
#
# 1 C_3
# 2 N_2
# 3 C_2
# 4 O_3

# Dihedral Coeffs
#
# 1 B1
# 2 C1

# Inversion Coeffs
#
# 1 1

 Masses

 1 12.01
 2 14.01
 3 16
 4 12.01
 5 1.01
 6 1.01
 7 16

 Atoms # full

1 1 1 0 8.62436960327363 4.15278289293526 2.59449007517725
2 1 2 0 8.8995020290612 3.24985549526806 1.4392412176482
3 1 3 0 9.95503448645586 3.02741192563575 -1.80763436815974
4 1 4 0 8.97687847108952 3.12243401832546 -1.0295849150377
5 1 2 0 7.79659208956486 2.48547877229352 -1.23422396834822
6 1 1 0 9.10264320258386 3.9967670245316 0.156361663257752
7 1 1 0 9.98218357336641 2.26660775602019 1.74409824460484
8 1 5 0 8.39952761757774 3.57112815502482 3.49104294441289
9 1 5 0 7.75295705440469 4.77791592921043 2.38959969807006
10 1 5 0 9.47989237465531 4.80062956474446 2.80179453116688
11 1 6 0 7.09589666955761 2.70761831367238 -0.600132364132518
12 1 5 0 10.0768325755345 4.49724887928606 0.166148833000097
13 1 5 0 8.34220038950894 4.77550531022147 0.0478926794720249
14 1 5 0 9.73879123482518 1.69792119062765 2.64399340509937
15 1 5 0 10.0918886658359 1.54743255144567 0.930819720474604
16 1 5 0 10.9403154262994 2.76964305963439 1.89668977684989
17 1 6 0 7.43895752702645 1.60810929314733 -2.20900991753948
18 2 6 0 8.15126058340073 7.9887829073146 0.398221422219649
19 2 7 0 9.11126058340073 7.9887829073146 0.398221422219649
20 2 6 0 9.35126058340073 7.0587829073146 0.398221422219649
21 3 6 0 8.60851442252286 11.0678762248158 9.0871790482197
22 3 7 0 9.56851442252286 11.0678762248158 9.0871790482197
23 3 6 0 9.80851442252286 10.1378762248158 9.0871790482197
24 4 6 0 -0.018233853187412 11.4520400708448 1.88741787686013
25 4 7 0 0.941766146812588 11.4520400708448 1.88741787686013
26 4 6 0 1.18176614681259 10.5220400708448 1.88741787686013
27 5 6 0 12.6098918756191 10.9695887814183 3.3769863343332
28 5 7 0 13.5698918756191 10.9695887814183 3.3769863343332
29 5 6 0 13.8098918756191 10.0395887814183 3.3769863343332
30 6 6 0 13.5156393754017 10.8633175333403 10.9246516088024
31 6 7 0 14.4756393754017 10.8633175333403 10.9246516088024
32 6 6 0 14.7156393754017 9.93331753334031 10.9246516088024
33 7 6 0 2.05915937360376 5.69145198835991 3.10934979119338
34 7 7 0 3.01915937360376 5.69145198835991 3.10934979119338
35 7 6 0 3.25915937360376 4.76145198835991 3.10934979119338
36 8 6 0 13.7697403393406 14.2664233378042 10.0279986974783
37 8 7 0 14.7297403393406 14.2664233378042 10.0279986974783
38 8 6 0 14.9697403393406 13.3364233378042 10.0279986974783
39 9 6 0 3.97704264658503 12.1507420138828 0.350775697734207
40 9 7 0 4.93704264658503 12.1507420138828 0.350775697734207
41 9 6 0 5.17704264658503 11.2207420138828 0.350775697734207
42 10 6 0 2.73945668290369 9.28601675707847 12.2260435251519
43 10 7 0 3.69945668290369 9.28601675707847 12.2260435251519
44 10 6 0 3.93945668290369 8.35601675707847 12.2260435251519
45 11 6 0 13.6766938380618 7.14862611535005 6.16649208124727
46 11 7 0 14.6366938380618 7.14862611535005 6.16649208124727
47 11 6 0 14.8766938380618 6.21862611535005 6.16649208124727
48 12 6 0 8.48792440418154 10.6085889988486 2.37320787040517
49 12 7 0 9.44792440418154 10.6085889988486 2.37320787040517
50 12 6 0 9.68792440418154 9.67858899884857 2.37320787040517
51 13 6 0 -0.168432595236227 2.33269758912735 1.72621014411561
52 13 7 0 0.791567404763773 2.33269758912735 1.72621014411561
53 13 6 0 1.03156740476377 1.40269758912735 1.72621014411561
54 14 6 0 11.6857747644838 1.73042498919182 3.23587819235399
55 14 7 0 12.6457747644838 1.73042498919182 3.23587819235399
56 14 6 0 12.8857747644838 0.800424989191815 3.23587819235399
57 15 6 0 5.49851078351028 9.44375747972168 12.8006159118377
58 15 7 0 6.45851078351028 9.44375747972168 12.8006159118377
59 15 6 0 6.69851078351028 8.51375747972168 12.8006159118377
60 16 6 0 6.92357518753968 6.36727710528299 3.13227677252144
61 16 7 0 7.88357518753968 6.36727710528299 3.13227677252144
62 16 6 0 8.12357518753968 5.43727710528299 3.13227677252144
63 17 6 0 6.5451671350468 15.1076594464853 3.65390760242008
64 17 7 0 7.5051671350468 15.1076594464853 3.65390760242008
65 17 6 0 7.7451671350468 14.1776594464853 3.65390760242008
66 18 6 0 13.9913646764774 10.8682336033694 9.69444211106747
67 18 7 0 14.9513646764774 10.8682336033694 9.69444211106747
68 18 6 0 15.1913646764774 9.93823360336945 9.69444211106747
69 19 6 0 0.69392256715335 4.29176834685728 9.29027706733905
70 19 7 0 1.65392256715335 4.29176834685728 9.29027706733905
71 19 6 0 1.89392256715335 3.36176834685728 9.29027706733905
72 20 6 0 5.66441899325699 5.42609845561907 14.6356427762657
73 20 7 0 6.62441899325699 5.42609845561907 14.6356427762657
74 20 6 0 6.86441899325699 4.49609845561907 14.6356427762657
75 21 6 0 2.6432049174048 15.2903052970674 6.53605688363314
76 21 7 0 3.6032049174048 15.2903052970674 6.53605688363314
77 21 6 0 3.8432049174048 14.3603052970674 6.53605688363314
78 22 6 0 1.51714621737599 6.49999100173823 13.7512108997907
79 22 7 0 2.47714621737599 6.49999100173823 13.7512108997907
80 22 6 0 2.71714621737599 5.56999100173824 13.7512108997907
81 23 6 0 1.24149830007926 3.38532174396329 5.60395077452995
82 23 7 0 2.20149830007926 3.38532174396329 5.60395077452995
83 23 6 0 2.44149830007926 2.45532174396329 5.60395077452995
84 24 6 0 6.43874630492181 14.9142387362104 13.4293222962879
85 24 7 0 7.39874630492181 14.9142387362104 13.4293222962879
86 24 6 0 7.63874630492181 13.9842387362104 13.4293222962879
87 25 6 0 1.20595743457787 3.61492275417782 6.06381401186809
88 25 7 0 2.16595743457787 3.61492275417782 6.06381401186809
89 25 6 0 2.40595743457787 2.68492275417782 6.06381401186809
90 26 6 0 3.76296934249811 2.65716628910974 4.21620132168755
91 26 7 0 4.72296934249811 2.65716628910974 4.21620132168755
92 26 6 0 4.96296934249811 1.72716628910974 4.21620132168755
93 27 6 0 6.9622082628496 1.87902983551845 1.21568251750432
94 27 7 0 7.9222082628496 1.87902983551845 1.21568251750432
95 27 6 0 8.1622082628496 0.949029835518449 1.21568251750432
96 28 6 0 -0.00370452253147957 11.7216270374507 7.59051303961314
97 28 7 0 0.95629547746852 11.7216270374507 7.59051303961314
98 28 6 0 1.19629547746852 10.7916270374507 7.59051303961314
99 29 6 0 -0.325726150330156 1.61652700201608 12.4736953200772
100 29 7 0 0.634273849669844 1.61652700201608 12.4736953200772
101 29 6 0 0.874273849669844 0.686527002016082 12.4736953200772
102 30 6 0 12.9782188001275 0.58585651143454 0.0811145862098783
103 30 7 0 13.9382188001275 0.58585651143454 0.0811145862098783
104 30 6 0 14.1782188001275 -0.34414348856546 0.0811145862098783
105 31 6 0 9.42809269923717 4.43198429461569 13.165614878526
106 31 7 0 10.3880926992372 4.43198429461569 13.165614878526
107 31 6 0 10.6280926992372 3.50198429461569 13.165614878526
108 32 6 0 10.1415632448345 8.22919993935153 10.2205863967538
109 32 7 0 11.1015632448345 8.22919993935153 10.2205863967538
110 32 6 0 11.3415632448345 7.29919993935153 10.2205863967538
111 33 6 0 -0.539693528115749 8.14185236039572 5.78064896981232
112 33 7 0 0.420306471884251 8.14185236039572 5.78064896981232
113 33 6 0 0.660306471884251 7.21185236039571 5.78064896981232
114 34 6 0 13.7585621634219 0.524229385601357 3.46731870551594
115 34 7 0 14.7185621634219 0.524229385601357 3.46731870551594
116 34 6 0 14.9585621634219 -0.405770614398643 3.46731870551594
117 35 6 0 1.21491440266371 9.98987745068967 6.14141948637553
118 35 7 0 2.17491440266371 9.98987745068967 6.14141948637553
119 35 6 0 2.41491440266371 9.05987745068967 6.14141948637553
120 36 6 0 5.95046912480146 8.48106983275153 12.0375135156792
121 36 7 0 6.91046912480146 8.48106983275153 12.0375135156792
122 36 6 0 7.15046912480146 7.55106983275153 12.0375135156792
123 37 6 0 10.6191357881483 4.42588612827472 13.7623398564756
124 37 7 0 11.5791357881483 4.42588612827472 13.7623398564756
125 37 6 0 11.8191357881483 3.49588612827472 13.7623398564756
126 38 6 0 2.70793886549771 8.07474910671823 5.43448992655613
127 38 7 0 3.66793886549771 8.07474910671823 5.43448992655613
128 38 6 0 3.90793886549771 7.14474910671823 5.43448992655613
129 39 6 0 3.09028151256032 12.8811721531115 7.79300369904377
130 39 7 0 4.05028151256032 12.8811721531115 7.79300369904377
131 39 6 0 4.29028151256032 11.9511721531115 7.79300369904377
132 40 6 0 3.43578433661722 2.01893830014393 5.64551762072369
133 40 7 0 4.39578433661722 2.01893830014393 5.64551762072369
134 40 6 0 4.63578433661722 1.08893830014393 5.64551762072369
135 41 6 0 10.1115663342364 15.2407689198758 13.8163214293309
136 41 7 0 11.0715663342364 15.2407689198758 13.8163214293309
137 41 6 0 11.3115663342364 14.3107689198758 13.8163214293309
138 42 6 0 -0.562448278795928 5.3204930519592 3.74256202136166
139 42 7 0 0.397551721204072 5.3204930519592 3.74256202136166
140 42 6 0 0.637551721204072 4.3904930519592 3.74256202136166
141 43 6 0 4.57741631937213 3.19598094601184 6.85556631884538
142 43 7 0 5.53741631937213 3.19598094601184 6.85556631884538
143 43 6 0 5.77741631937213 2.26598094601184 6.85556631884538
144 44 6 0 8.35213224680163 15.1059658619948 12.4108140589669
145 44 7 0 9.31213224680163 15.1059658619948 12.4108140589669
146 44 6 0 9.55213224680163 14.1759658619948 12.4108140589669
147 45 6 0 14.2112346114311 7.10856128874235 8.27210963121615
148 45 7 0 15.1712346114311 7.10856128874235 8.27210963121615
149 45 6 0 15.4112346114311 6.17856128874235 8.27210963121615
150 46 6 0 0.619506410295144 8.9532459182106 4.05428964179009
151 46 7 0 1.57950641029514 8.9532459182106 4.05428964179009
152 46 6 0 1.81950641029514 8.0232459182106 4.05428964179009
153 47 6 0 3.23370555692352 5.0240244836919 13.8771701382939
154 47 7 0 4.19370555692352 5.0240244836919 13.8771701382939
155 47 6 0 4.43370555692352 4.0940244836919 13.8771701382939
156 48 6 0 7.69396020376124 8.97747280000709 6.65867020259611
157 48 7 0 8.65396020376124 8.97747280000709 6.65867020259611
158 48 6 0 8.89396020376124 8.04747280000709 6.65867020259611
159 49 6 0 10.7291221576463 10.1717337609176 0.184443119214848
160 49 7 0 11.6891221576463 10.1717337609176 0.184443119214848
161 49 6 0 11.9291221576463 9.24173376091756 0.184443119214848
162 50 6 0 8.51384591471404 5.39065459318459 4.76008522440679
163 50 7 0 9.47384591471404 5.39065459318459 4.76008522440679
164 50 6 0 9.71384591471404 4.46065459318459 4.76008522440679
165 51 6 0 1.07898083209991 4.61275033926591 10.0634222128429
166 51 7 0 2.03898083209991 4.61275033926591 10.0634222128429
167 51 6 0 2.27898083209991 3.68275033926591 10.0634222128429
168 52 6 0 11.2762529686745 6.92465122713707 5.43093096697703
169 52 7 0 12.2362529686745 6.92465122713707 5.43093096697703
170 52 6 0 12.4762529686745 5.99465122713707 5.43093096697703
171 53 6 0 8.30816235087812 11.1143202001136 3.27578469878063
172 53 7 0 9.26816235087812 11.1143202001136 3.27578469878063
173 53 6 0 9.50816235087812 10.1843202001136 3.27578469878063
174 54 6 0 0.0824930732790381 9.77147878421471 8.70634010061622
175 54 7 0 1.04249307327904 9.77147878421471 8.70634010061622
176 54 6 0 1.28249307327904 8.84147878421471 8.70634010061622
177 55 6 0 10.3189310598839 2.93268794700503 0.15547099406831
178 55 7 0 11.2789310598839 2.93268794700503 0.15547099406831
179 55 6 0 11.5189310598839 2.00268794700503 0.15547099406831
180 56 6 0 10.7279075674899 2.28926501510665 2.40860751131549
181 56 7 0 11.6879075674899 2.28926501510665 2.40860751131549
182 56 6 0 11.9279075674899 1.35926501510665 2.40860751131549
183 57 6 0 6.63823768889532 5.10748880024999 4.21218469622545
184 57 7 0 7.59823768889532 5.10748880024999 4.21218469622545
185 57 6 0 7.83823768889532 4.17748880024999 4.21218469622545
186 58 6 0 13.9953870051261 0.502673034034669 0.380907190265134
187 58 7 0 14.9553870051261 0.502673034034669 0.380907190265134
188 58 6 0 15.1953870051261 -0.427326965965331 0.380907190265134
189 59 6 0 9.2997356462013 5.51692964084446 4.161073876312
190 59 7 0 10.2597356462013 5.51692964084446 4.161073876312
191 59 6 0 10.4997356462013 4.58692964084446 4.161073876312
192 60 6 0 9.27108964344487 0.727050134856254 6.61622787709348
193 60 7 0 10.2310896434449 0.727050134856254 6.61622787709348
194 60 6 0 10.4710896434449 -0.202949865143746 6.61622787709348
195 61 6 0 11.5757919398323 3.78349367104471 8.04318948299624
196 61 7 0 12.5357919398323 3.78349367104471 8.04318948299624
197 61 6 0 12.7757919398323 2.85349367104471 8.04318948299624
198 62 6 0 0.432335020015016 11.1535072249267 4.67420028056949
199 62 7 0 1.39233502001502 11.1535072249267 4.67420028056949
200 62 6 0 1.63233502001502 10.2235072249267 4.67420028056949
201 63 6 0 2.64620938964188 4.43038660608232 11.0323302622419
202 63 7 0 3.60620938964188 4.43038660608232 11.0323302622419
203 63 6 0 3.84620938964188 3.50038660608232 11.0323302622419
204 64 6 0 2.21811201467179 4.25963180180639 6.21291063842364
205 64 7 0 3.17811201467179 4.25963180180639 6.21291063842364
206 64 6 0 3.41811201467179 3.32963180180639 6.21291063842364
207 65 6 0 4.81493976825848 9.86126635963097 12.4214752041735
208 65 7 0 5.77493976825848 9.86126635963097 12.4214752041735
209 65 6 0 6.01493976825848 8.93126635963097 12.4214752041735
210 66 6 0 9.99633206564002 5.00741617911495 1.53565495158546
211 66 7 0 10.95633206564 5.00741617911495 1.53565495158546
212 66 6 0 11.19633206564 4.07741617911495 1.53565495158546
213 67 6 0 8.70103720852174 0.41061138193123 12.2258737043012
214 67 7 0 9.66103720852174 0.41061138193123 12.2258737043012
215 67 6 0 9.90103720852174 -0.51938861806877 12.2258737043012
216 68 6 0 9.91317644409835 6.97844038292766 4.98400639160536
217 68 7 0 10.8731764440984 6.97844038292766 4.98400639160536
218 68 6 0 11.1131764440984 6.04844038292766 4.98400639160536
219 69 6 0 4.86545628329739 3.94553429255262 3.62178520183079
220 69 7 0 5.82545628329739 3.94553429255262 3.62178520183079
221 69 6 0 6.06545628329739 3.01553429255262 3.62178520183079
222 70 6 0 3.59455400772393 12.6211471429002 5.91738048708066
223 70 7 0 4.55455400772393 12.6211471429002 5.91738048708066
224 70 6 0 4.79455400772393 11.6911471429002 5.91738048708066
225 71 6 0 9.55519337134436 14.2212846099306 13.0193569301628
226 71 7 0 10.5151933713444 14.2212846099306 13.0193569301628
227 71 6 0 10.7551933713444 13.2912846099306 13.0193569301628
228 72 6 0 8.26402862716466 3.75186838017777 10.6744721916039
229 72 7 0 9.22402862716466 3.75186838017777 10.6744721916039
230 72 6 0 9.46402862716466 2.82186838017777 10.6744721916039
231 73 6 0 -0.708449412630871 6.11193717381917 10.6664048926905
232 73 7 0 0.251550587369129 6.11193717381917 10.6664048926905
233 73 6 0 0.491550587369129 5.18193717381917 10.6664048926905
234 74 6 0 1.7501312603429 0.830388170843944 14.4195634871721
235 74 7 0 2.7101312603429 0.830388170843944 14.4195634871721
236 74 6 0 2.9501312603429 -0.0996118291560561 14.4195634871721
237 75 6 0 9.04120375678874 2.35904904589057 4.71061625168659
238 75 7 0 10.0012037567887 2.35904904589057 4.71061625168659
239 75 6 0 10.2412037567887 1.42904904589057 4.71061625168659
240 76 6 0 7.74510614384897 14.0029159436841 5.33411374781281
241 76 7 0 8.70510614384897 14.0029159436841 5.33411374781281
242 76 6 0 8.94510614384897 13.0729159436841 5.33411374781281
243 77 6 0 2.03573791586794 4.79291581706144 5.73251229012385
244 77 7 0 2.99573791586794 4.79291581706144 5.73251229012385
245 77 6 0 3.23573791586794 3.86291581706144 5.73251229012385
246 78 6 0 10.9404034288321 10.4430546464305 1.68855252326466
247 78 7 0 11.9004034288321 10.4430546464305 1.68855252326466
248 78 6 0 12.1404034288321 9.51305464643054 1.68855252326466
249 79 6 0 7.46963743164204 7.13116934913211 8.27323131496087
250 79 7 0 8.42963743164204 7.13116934913211 8.27323131496087
251 79 6 0 8.66963743164204 6.20116934913211 8.27323131496087
252 80 6 0 14.189993216861 6.93619932438247 11.3960159139242
253 80 7 0 15.149993216861 6.93619932438247 11.3960159139242
254 80 6 0 15.389993216861 6.00619932438247 11.3960159139242
255 81 6 0 13.3785362359788 2.23513951100409 4.97886252589524
256 81 7 0 14.3385362359788 2.23513951100409 4.97886252589524
257 81 6 0 14.5785362359788 1.30513951100409 4.97886252589524
258 82 6 0 6.27875410879031 10.7879660573695 13.6277066543698
259 82 7 0 7.23875410879031 10.7879660573695 13.6277066543698
260 82 6 0 7.47875410879031 9.85796605736949 13.6277066543698
261 83 6 0 10.9582934451476 3.21876913699321 10.1007520314306
262 83 7 0 11.9182934451476 3.21876913699321 10.1007520314306
263 83 6 0 12.1582934451476 2.28876913699321 10.1007520314306
264 84 6 0 11.1193060856033 14.2384323877655 12.5149246794172
265 84 7 0 12.0793060856033 14.2384323877655 12.5149246794172
266 84 6 0 12.3193060856033 13.3084323877655 12.5149246794172
267 85 6 0 13.11607227006 2.46135295758955 13.051536254352
268 85 7 0 14.07607227006 2.46135295758955 13.051536254352
269 85 6 0 14.31607227006 1.53135295758955 13.051536254352
270 86 6 0 4.64314598517492 13.2460301501583 11.9824167795014
271 86 7 0 5.60314598517492 13.2460301501583 11.9824167795014
272 86 6 0 5.84314598517492 12.3160301501583 11.9824167795014
273 87 6 0 9.73683214673772 5.94672413816676 9.40852628205903
274 87 7 0 10.6968321467377 5.94672413816676 9.40852628205903
275 87 6 0 10.9368321467377 5.01672413816676 9.40852628205903
276 88 6 0 4.47188455422409 14.6945100502949 9.52252087066881
277 88 7 0 5.43188455422409 14.6945100502949 9.52252087066881
278 88 6 0 5.67188455422409 13.7645100502949 9.52252087066881
279 89 6 0 9.41271982432343 12.1973892258853 6.50866021751426
280 89 7 0 10.3727198243234 12.1973892258853 6.50866021751426
281 89 6 0 10.6127198243234 11.2673892258853 6.50866021751426
282 90 6 0 5.00145233745687 12.6314733542409 8.78213260089979
283 90 7 0 5.96145233745687 12.6314733542409 8.78213260089979
284 90 6 0 6.20145233745687 11.7014733542409 8.78213260089979
285 91 6 0 3.83587320844643 7.35893819754943 12.2291156218853
286 91 7 0 4.79587320844643 7.35893819754943 12.2291156218853
287 91 6 0 5.03587320844643 6.42893819754943 12.2291156218853
288 92 6 0 4.82315041517839 13.0155706095416 7.18155889422633
289 92 7 0 5.78315041517839 13.0155706095416 7.18155889422633
290 92 6 0 6.02315041517839 12.0855706095416 7.18155889422633
291 93 6 0 13.4713175722584 8.73702162568457 9.89065369474702
292 93 7 0 14.4313175722584 8.73702162568457 9.89065369474702
293 93 6 0 14.6713175722584 7.80702162568457 9.89065369474702
294 94 6 0 10.127152863862 14.3033399041183 3.3040039613843
295 94 7 0 11.087152863862 14.3033399041183 3.3040039613843
296 94 6 0 11.327152863862 13.3733399041183 3.3040039613843
297 95 6 0 13.5119891927764 14.1751781564113 8.49568438483402
298 95 7 0 14.4719891927764 14.1751781564113 8.49568438483402
299 95 6 0 14.7119891927764 13.2451781564113 8.49568438483402
300 96 6 0 12.4355176293477 4.26272694528103 6.70496538165025
301 96 7 0 13.3955176293477 4.26272694528103 6.70496538165025
302 96 6 0 13.6355176293477 3.33272694528103 6.70496538165025
303 97 6 0 9.04880420465022 6.89070386969484 10.4530303250067
304 97 7 0 10.0088042046502 6.89070386969484 10.4530303250067
305 97 6 0 10.2488042046502 5.96070386969484 10.4530303250067
306 98 6 0 4.44497394419275 6.719485808108 5.84180510253645
307 98 7 0 5.40497394419275 6.719485808108 5.84180510253645
308 98 6 0 5.64497394419275 5.789485808108 5.84180510253645
309 99 6 0 14.1791857271176 14.1903081726655 3.42312273918651
310 99 7 0 15.1391857271176 14.1903081726655 3.42312273918651
311 99 6 0 15.3791857271176 13.2603081726655 3.42312273918651
312 100 6 0 5.14575704044662 8.80667864968069 14.6144751319662
313 100 7 0 6.10575704044662 8.80667864968069 14.6144751319662
314 100 6 0 6.34575704044662 7.87667864968069 14.6144751319662
315 101 6 0 2.85923526316881 14.2168167097867 6.15528557100333
316 101 7 0 3.81923526316881 14.2168167097867 6.15528557100333
317 101 6 0 4.05923526316881 13.2868167097867 6.15528557100333
318 102 6 0 7.98470153982751 2.52021014032885 8.76551773748361
319 102 7 0 8.94470153982751 2.52021014032885 8.76551773748361
320 102 6 0 9.18470153982751 1.59021014032885 8.76551773748361
321 103 6 0 8.78028695398942 6.11433336086571 3.27498804079369
322 103 7 0 9.74028695398942 6.11433336086571 3.27498804079369
323 103 6 0 9.98028695398942 5.18433336086571 3.27498804079369
324 104 6 0 10.5257871821243 4.39251649001613 1.9549314386677
325 104 7 0 11.4857871821243 4.39251649001613 1.9549314386677
326 104 6 0 11.7257871821243 3.46251649001613 1.9549314386677
327 105 6 0 6.3415567965433 0.998725218642503 12.1229610743467
328 105 7 0 7.3015567965433 0.998725218642503 12.1229610743467
329 105 6 0 7.5415567965433 0.068725218642503 12.1229610743467
330 106 6 0 12.1441754260752 5.94053556252271 3.04504073574208
331 106 7 0 13.1041754260752 5.94053556252271 3.04504073574208
332 106 6 0 13.3441754260752 5.01053556252271 3.04504073574208
333 107 6 0 13.6545760002639 8.25547800207511 10.4952747118659
334 107 7 0 14.6145760002639 8.25547800207511 10.4952747118659
335 107 6 0 14.8545760002639 7.32547800207511 10.4952747118659
336 108 6 0 0.715959317022935 6.22307999799028 9.01442618225701
337 108 7 0 1.67595931702293 6.22307999799028 9.01442618225701
338 108 6 0 1.91595931702293 5.29307999799028 9.01442618225701
339 109 6 0 3.23309771527536 7.41374144488014 1.3221388135571
340 109 7 0 4.19309771527536 7.41374144488014 1.3221388135571
341 109 6 0 4.43309771527536 6.48374144488014 1.3221388135571
342 110 6 0 5.46932249606587 3.4949959329702 9.01760435546748
343 110 7 0 6.42932249606587 3.4949959329702 9.01760435546748
344 110 6 0 6.66932249606587 2.5649959329702 9.01760435546748
345 111 6 0 1.11402238762937 12.135208395021 11.571365701966
346 111 7 0 2.07402238762938 12.135208395021 11.571365701966
347 111 6 0 2.31402238762938 11.205208395021 11.571365701966
348 112 6 0 7.54001580571756 0.864983739275485 2.79637466766872
349 112 7 0 8.50001580571756 0.864983739275485 2.79637466766872
350 112 6 0 8.74001580571756 -0.0650162607245148 2.79637466766872
351 113 6 0 9.22877556455322 11.225463390993 6.47258804063313
352 113 7 0 10.1887755645532 11.225463390993 6.47258804063313
353 113 6 0 10.4287755645532 10.295463390993 6.47258804063313
354 114 6 0 4.5883627007436 5.00300468219444 11.8111166136805
355 114 7 0 5.5483627007436 5.00300468219444 11.8111166136805
356 114 6 0 5.7883627007436 4.07300468219444 11.8111166136805
357 115 6 0 -0.316774267265573 14.8192812832445 8.17015378153883
358 115 7 0 0.643225732734427 14.8192812832445 8.17015378153883
359 115 6 0 0.883225732734427 13.8892812832445 8.17015378153883
360 116 6 0 4.88603162739426 12.0154336215369 9.78143256506883
361 116 7 0 5.84603162739426 12.0154336215369 9.78143256506883
362 116 6 0 6.08603162739426 11.0854336215369 9.78143256506883
363 117 6 0 5.55017350983806 9.44813332561404 2.21921722171828
364 117 7 0 6.51017350983806 9.44813332561404 2.21921722171828
365 117 6 0 6.75017350983806 8.51813332561404 2.21921722171828
366 118 6 0 12.2109741547331 8.65625642513856 0.607067282544449
367 118 7 0 13.1709741547331 8.65625642513856 0.607067282544449
368 118 6 0 13.4109741547331 7.72625642513856 0.607067282544449
369 119 6 0 0.669292554231361 12.3332509321067 11.5675066213589
370 119 7 0 1.62929255423136 12.3332509321067 11.5675066213589
371 119 6 0 1.86929255423136 11.4032509321067 11.5675066213589
372 120 6 0 8.96465682235546 13.1273264267389 12.9197163681965
373 120 7 0 9.92465682235546 13.1273264267389 12.9197163681965
374 120 6 0 10.1646568223555 12.1973264267389 12.9197163681965
375 121 6 0 7.58127791385166 7.99016847083345 10.660273223184
376 121 7 0 8.54127791385166 7.99016847083345 10.660273223184
377 121 6 0 8.78127791385166 7.06016847083345 10.660273223184
378 122 6 0 13.2580834259 13.9802423228417 3.49701748928055
379 122 7 0 14.2180834259 13.9802423228417 3.49701748928055
380 122 6 0 14.4580834259 13.0502423228417 3.49701748928055
381 123 6 0 13.9776629120763 4.68291969312355 6.91505842027254
382 123 7 0 14.9376629120763 4.68291969312355 6.91505842027254
383 123 6 0 15.1776629120763 3.75291969312355 6.91505842027254
384 124 6 0 10.1128357140999 2.99179302453063 0.35851591732353
385 124 7 0 11.0728357140999 2.99179302453063 0.35851591732353
386 124 6 0 11.3128357140999 2.06179302453063 0.35851591732353
387 125 6 0 4.94928835585713 4.90861964336596 5.6795758951921
388 125 7 0 5.90928835585713 4.90861964336596 5.6795758951921
389 125 6 0 6.14928835585713 3.97861964336596 5.6795758951921
390 126 6 0 1.14719848774374 1.60686066298746 11.478919016663
391 126 7 0 2.10719848774374 1.60686066298746 11.478919016663
392 126 6 0 2.34719848774374 0.676860662987456 11.478919016663
393 127 6 0 5.41802122185007 15.0710745870043 5.63213274115697
394 127 7 0 6.37802122185007 15.0710745870043 5.63213274115697
395 127 6 0 6.61802122185007 14.1410745870043 5.63213274115697
396 128 6 0 8.59111313402653 12.8454363420047 1.97037354810163
397 128 7 0 9.55111313402653 12.8454363420047 1.97037354810163
398 128 6 0 9.79111313402653 11.9154363420047 1.97037354810163
399 129 6 0 11.150116830105 11.2938861587923 1.20380680309609
400 129 7 0 12.110116830105 11.2938861587923 1.20380680309609
401 129 6 0 12.350116830105 10.3638861587923 1.20380680309609
402 130 6 0 11.4669991638232 12.8104551745951 13.0814539105631
403 130 7 0 12.4269991638232 12.8104551745951 13.0814539105631
404 130 6 0 12.6669991638232 11.8804551745951 13.0814539105631
405 131 6 0 10.2011230091751 9.13962567964569 7.27647475199774
406 131 7 0 11.1611230091751 9.13962567964569 7.27647475199774
407 131 6 0 11.4011230091751 8.20962567964569 7.27647475199774
408 132 6 0 -0.71405822600238 9.89411876112223 11.0414763749577
409 132 7 0 0.24594177399762 9.89411876112223 11.0414763749577
410 132 6 0 0.48594177399762 8.96411876112223 11.0414763749577
411 133 6 0 5.9165214146208 4.23713522422127 4.07058800454251
412 133 7 0 6.8765214146208 4.23713522422127 4.07058800454251
413 133 6 0 7.1165214146208 3.30713522422127 4.07058800454251
414 134 6 0 4.56812665259466 6.1059576707799 6.65677923825569
415 134 7 0 5.52812665259466 6.1059576707799 6.65677923825569
416 134 6 0 5.76812665259466 5.1759576707799 6.65677923825569
417 135 6 0 1.10118749362417 9.67121874023229 7.71253523882478
418 135 7 0 2.06118749362417 9.67121874023229 7.71253523882478
419 135 6 0 2.30118749362417 8.74121874023229 7.71253523882478
420 136 6 0 0.129295064108446 14.564631891381 2.09624479757622
421 136 7 0 1.08929506410845 14.564631891381 2.09624479757622
422 136 6 0 1.32929506410845 13.634631891381 2.09624479757622
423 137 6 0 11.5350806938671 11.6915368886571 13.8721313606948
424 137 7 0 12.4950806938671 11.6915368886571 13.8721313606948
425 137 6 0 12.7350806938671 10.7615368886571 13.8721313606948
426 138 6 0 5.58176854203455 10.7565352196712 1.32717244327068
427 138 7 0 6.54176854203455 10.7565352196712 1.32717244327068
428 138 6 0 6.78176854203455 9.82653521967121 1.32717244327068
429 139 6 0 3.10448563585058 0.391981058465317 0.934109506197274
430 139 7 0 4.06448563585058 0.391981058465317 0.934109506197274
431 139 6 0 4.30448563585058 -0.538018941534683 0.934109506197274
432 140 6 0 7.40244906323031 1.43037646817043 12.5992914789822
433 140 7 0 8.36244906323031 1.43037646817043 12.5992914789822
434 140 6 0 8.60244906323031 0.500376468170434 12.5992914789822
435 141 6 0 3.95332662083209 14.4818780773226 2.96832046355121
436 141 7 0 4.91332662083209 14.4818780773226 2.96832046355121
437 141 6 0 5.15332662083209 13.5518780773226 2.96832046355121
438 142 6 0 9.5988521694392 14.0234374061134 5.42926811263897
439 142 7 0 10.5588521694392 14.0234374061134 5.42926811263897
440 142 6 0 10.7988521694392 13.0934374061134 5.42926811263897
441 143 6 0 11.3895681097358 1.20731896528974 7.03630422474816
442 143 7 0 12.3495681097358 1.20731896528974 7.03630422474816
443 143 6 0 12.5895681097358 0.277318965289742 7.03630422474816
444 144 6 0 13.9583673972823 4.69720162142999 8.22948638931848
445 144 7 0 14.9183673972823 4.69720162142999 8.22948638931848
446 144 6 0 15.1583673972823 3.76720162142999 8.22948638931848
447 145 6 0 3.54399784977548 14.4720677267201 1.34722884278744
448 145 7 0 4.50399784977548 14.4720677267201 1.34722884278744
449 145 6 0 4.74399784977548 13.5420677267201 1.34722884278744
450 146 6 0 5.15658541160636 3.76646206988022 11.6069616156165
451 146 7 0 6.11658541160636 3.76646206988022 11.6069616156165
452 146 6 0 6.35658541160636 2.83646206988022 11.6069616156165
453 147 6 0 -0.308037201901898 14.3758151684329 1.77607696736231
454 147 7 0 0.651962798098102 14.3758151684329 1.77607696736231
455 147 6 0 0.891962798098102 13.4458151684329 1.77607696736231
456 148 6 0 3.42927438483574 13.3606457469892 6.54342618305236
457 148 7 0 4.38927438483574 13.3606457469892 6.54342618305236
458 148 6 0 4.62927438483574 12.4306457469892 6.54342618305236
459 149 6 0 0.650008323574439 9.93571618030779 8.99474529549479
460 149 7 0 1.61000832357444 9.93571618030779 8.99474529549479
461 149 6 0 1.85000832357444 9.00571618030779 8.99474529549479
462 150 6 0 1.92792563393712 11.2789220797736 2.46080762590282
463 150 7 0 2.88792563393712 11.2789220797736 2.46080762590282
464 150 6 0 3.12792563393712 10.3489220797736 2.46080762590282
465 151 6 0 -0.321680820342153 1.21614626184106 14.1415717976633
466 151 7 0 0.638319179657847 1.21614626184106 14.1415717976633
467 151 6 0 0.878319179657847 0.286146261841059 14.1415717976633
468 152 6 0 4.57701058985665 1.33702992968261 11.4866171346512
469 152 7 0 5.53701058985665 1.33702992968261 11.4866171346512
470 152 6 0 5.77701058985665 0.407029929682612 11.4866171346512
471 153 6 0 3.9772928813193 9.42428074818105 3.63305286155082
472 153 7 0 4.9372928813193 9.42428074818105 3.63305286155082
473 153 6 0 5.1772928813193 8.49428074818105 3.63305286155082
474 154 6 0 8.42623472490348 12.7481600914057 1.52659707237035