LAMMPS (29 Sep 2021 - Update 1)
Reading data file ...
  triclinic box = (0.0000000 0.0000000 0.0000000) to (15.000000 15.000000 15.000000) with tilt (0.0000000 0.0000000 0.0000000)
  2 by 4 by 4 MPI processor grid
  reading atoms ...
  1517 atoms
  scanning bonds ...
  4 = max bonds/atom
  scanning angles ...
  6 = max angles/atom
  scanning dihedrals ...
  12 = max dihedrals/atom
  scanning impropers ...
  1 = max impropers/atom
  reading bonds ...
  1016 bonds
  reading angles ...
  527 angles
  reading dihedrals ...
  28 dihedrals
  reading impropers ...
  3 impropers
Finding 1-2 1-3 1-4 neighbors ...
  special bond factors lj:    0        0        1       
  special bond factors coul:  0        0        1       
     4 = max # of 1-2 neighbors
     9 = max # of 1-3 neighbors
    12 = max # of special neighbors
  special bonds CPU = 0.002 seconds
  read_data CPU = 0.018 seconds
WARNING: Using 'neigh_modify every 1 delay 0 check yes' setting during minimization (../min.cpp:188)
Neighbor list info ...
  update every 1 steps, delay 0 steps, check yes
  max neighbors/atom: 10000, page size: 100000
  master list distance cutoff = 13
  ghost atom cutoff = 13
  binsize = 6.5, bins = 3 3 3
  3 neighbor lists, perpetual/occasional/extra = 3 0 0
  (1) pair hbond/dreiding/lj, perpetual, skip from (3)
      attributes: full, newton on
      pair build: skip
      stencil: none
      bin: none
  (2) pair lj/cut, perpetual, half/full from (3)
      attributes: half, newton on
      pair build: halffull/newton
      stencil: none
      bin: none
  (3) neighbor class addition, perpetual
      attributes: full, newton on
      pair build: full/bin
      stencil: full/bin/3d
      bin: standard
Setting up cg style minimization ...
  Unit style    : real
  Current step  : 0
WARNING: Energy due to 1 extra global DOFs will be included in minimizer energies
Per MPI rank memory allocation (min/avg/max) = 15.52 | 15.88 | 16.59 Mbytes
Step Temp E_pair E_mol TotEng Press Volume 
       0            0 1.4979207e+18    239.99956 1.4979207e+18 1.2173043e+20         3375 
    5628            0   -1086.8503    42.586838   -1044.2634    125.32521    38256.595 
Loop time of 4.69158 on 32 procs for 5628 steps with 1517 atoms

100.0% CPU use with 32 MPI tasks x no OpenMP threads

Minimization stats:
  Stopping criterion = energy tolerance
  Energy initial, next-to-last, final = 
    1.49792070541592e+18  -1043.67018230713  -1043.75472117123
  Force two-norm initial, final = 2.4640715e+20 114.52126
  Force max component initial, final = 1.2999828e+20 92.637139
  Final line search alpha, max atom move = 2.1223295e-05 0.0019660653
  Iterations, force evaluations = 5628 5630

MPI task timing breakdown:
Section |  min time  |  avg time  |  max time  |%varavg| %total
---------------------------------------------------------------
Pair    | 1.3387     | 2.5525     | 3.9152     |  41.3 | 54.41
Bond    | 0.0066204  | 0.012059   | 0.026458   |   3.7 |  0.26
Neigh   | 0.098963   | 0.099306   | 0.099589   |   0.1 |  2.12
Comm    | 0.29533    | 1.6641     | 2.8784     |  51.3 | 35.47
Output  | 0          | 0          | 0          |   0.0 |  0.00
Modify  | 0          | 0          | 0          |   0.0 |  0.00
Other   |            | 0.3637     |            |       |  7.75

Nlocal:        47.4062 ave          65 max          26 min
Histogram: 3 1 1 4 3 4 6 5 3 2
Nghost:        1931.00 ave        2007 max        1864 min
Histogram: 5 8 3 0 0 0 3 5 4 4
Neighs:        4946.59 ave        8125 max        2760 min
Histogram: 4 5 3 4 3 5 4 2 0 2

Total # of neighbors = 158291
Ave neighs/atom = 104.34476
Ave special neighs/atom = 2.0342782
Neighbor list builds = 104
Dangerous builds = 0
1500 atoms in group WAT
17 atoms in group MOL
Neighbor list info ...
  update every 2 steps, delay 10 steps, check yes
  max neighbors/atom: 10000, page size: 100000
  master list distance cutoff = 13
  ghost atom cutoff = 13
  binsize = 6.5, bins = 6 6 6
  4 neighbor lists, perpetual/occasional/extra = 3 1 0
  (1) pair hbond/dreiding/lj, perpetual, skip from (4)
      attributes: full, newton on
      pair build: skip
      stencil: none
      bin: none
  (2) pair lj/cut, perpetual, half/full from (4)
      attributes: half, newton on
      pair build: halffull/newton
      stencil: none
      bin: none
  (3) compute group/group, occasional, copy from (2)
      attributes: half, newton on
      pair build: copy
      stencil: none
      bin: none
  (4) neighbor class addition, perpetual
      attributes: full, newton on
      pair build: full/bin
      stencil: full/bin/3d
      bin: standard
Setting up Verlet run ...
  Unit style    : real
  Current step  : 5628
  Time step     : 1
Per MPI rank memory allocation (min/avg/max) = 14.37 | 14.45 | 15.06 Mbytes
Step Temp E_pair E_mol TotEng Press Volume 
    5628          300   -1086.8503    42.586838    311.40898    1745.1994    38256.595 
    5700    302.75794   -1083.5409    164.76395     449.3583   -513.03814    38256.595 
    5800    295.00981   -1070.1211    221.86741    484.86853   -607.68081    38256.595 
    5900    298.87252   -1056.6524    205.60684    499.53185   -28.596168    38256.595 
    6000    291.51452   -1086.3977    194.49918    425.42884    39.559036    38256.595 
    6100    297.59958   -1091.0411    195.84877    449.63277    427.71381    38256.595 
    6200    306.66801   -1058.3037    211.68343    539.18423    148.14708    38256.595 
    6300    294.55534   -1061.1312    207.28578    477.22306    527.93525    38256.595 
    6400    299.50687   -1092.3482    203.40989    464.50573    340.84501    38256.595 
    6500    291.24913   -1118.0904    213.31134    411.34894    299.89091    38256.595 
    6600    302.29895   -1093.9981    213.46246    485.52553     84.84426    38256.595 
    6700    298.43909   -1139.2821    207.43672    416.77339    533.05321    38256.595 
    6800    299.68755   -1088.5259    215.07436    480.80894    289.25154    38256.595 
    6900    298.53454   -1128.1926    223.87038    444.72796   -130.54696    38256.595 
    7000    301.40036   -1107.3904    210.85739    465.46748    7.7209172    38256.595 
    7100    297.66376   -1090.3148    214.89326    469.69363     317.5176    38256.595 
    7200    307.11588   -1082.2279    216.30727     521.9078    672.44996    38256.595 
    7300    313.86711   -1080.7683    219.79807    557.36643    623.12997    38256.595 
    7400    291.93757     -1153.39    223.46619    389.31522    364.79252    38256.595 
    7500     297.7869   -1130.6887    211.09093    426.07386    310.13614    38256.595 
    7600    303.80955   -1100.1016    216.93592    489.72172    338.80405    38256.595 
    7700    297.28286   -1149.9084    240.67545    434.16098    840.20428    38256.595 
    7800    303.75076    -1122.881    234.75374    484.49451    626.79406    38256.595 
    7900     301.1961   -1117.6161    217.64005    461.10138    607.83686    38256.595 
    8000    294.74029     -1119.97    229.03337    440.96769    676.54259    38256.595 
    8100    297.35851   -1136.5734    222.88083    430.04315    243.11796    38256.595 
    8200    308.97578   -1129.0482    245.76995    512.95488    205.20053    38256.595 
    8300    295.00032   -1132.6375    250.12342    450.56528   -615.19419    38256.595 
    8400    302.40252   -1107.0726    225.54291    484.99945    257.71277    38256.595 
    8500     306.0719   -1103.2605     231.2511    511.10139    123.21019    38256.595 
    8600    299.51488   -1119.8146    248.95511    482.62071    641.98081    38256.595 
    8700    301.62959   -1118.7924    244.15328    488.39725    558.85263    38256.595 
    8800    296.64857    -1107.782    233.01597    465.76157    602.06154    38256.595 
    8900    306.00772   -1098.8255    259.95241    543.94763    581.66262    38256.595 
    9000    294.60583   -1122.5338    236.77887    445.54169    567.86796    38256.595 
    9100    302.53292   -1113.7531    253.78852    507.15389    421.75865    38256.595 
    9200    294.34927   -1110.4539     242.5052    462.18859   -17.141178    38256.595 
    9300    292.08214   -1100.9699     264.1961    483.11853     229.8344    38256.595 
    9400    295.15755   -1121.9259    244.11184    455.97573    423.82359    38256.595 
    9500    290.08861   -1159.2732     246.4155    398.02608    238.92821    38256.595 
    9600    288.58189   -1115.5295    254.17544    442.72094    426.36551    38256.595 
    9700    295.71423   -1085.0826    255.08117    506.30394    736.69296    38256.595 
    9800    304.29864   -1087.6924    255.66616    543.07135    606.51372    38256.595 
    9900    298.31986   -1106.1786    237.65681    479.55818    635.83854    38256.595 
   10000    296.34379   -1115.7164    272.40311    495.83709    656.88834    38256.595 
   10100     305.6978   -1119.7501    260.23261    521.90271     47.46111    38256.595 
   10200    304.39452   -1115.9598    265.35105    524.92212    97.935829    38256.595 
   10300    314.20025   -1105.9726     221.1386    535.00805    123.57765    38256.595 
   10400      299.257   -1107.5678    267.95301    512.70006    9.6787267    38256.595 
   10500    302.55156   -1105.6626    251.73085    513.27096    13.311567    38256.595 
   10600    296.98721   -1144.2727    258.85758    456.64281   -7.4206281    38256.595 
   10700    305.15537   -1154.3998    259.71548    484.28476   -124.53373    38256.595 
   10800    303.85471   -1124.1503      252.765    501.70617    366.07398    38256.595 
   10900    295.06099   -1114.4956     264.1697    483.02761    497.23928    38256.595 
   11000    298.89649   -1127.0904    247.65687    471.25223    204.29509    38256.595 
   11100    294.67453   -1134.6616    278.43008    475.37564    432.41535    38256.595 
   11200    298.14173   -1136.9682    254.40942     464.7163    160.76778    38256.595 
   11300    306.05814   -1155.3927    266.00379    493.65965    346.71836    38256.595 
   11400    300.05976   -1125.7487    264.25831    494.45209    389.57155    38256.595 
   11500    297.42957   -1115.7338     268.7769    497.09999    195.61507    38256.595 
   11600    289.97708   -1124.1313     258.7441    444.99256    916.04308    38256.595 
   11700    300.14426   -1125.7227    276.97675     507.5784    490.94975    38256.595 
   11800    295.44006   -1075.0208    276.06637    536.11205      242.278    38256.595 
   11900    301.32746   -1074.2454    269.09842    556.52405   -2.4415842    38256.595 
   12000    307.94576   -1105.6131    263.66931    549.63479   -142.96609    38256.595 
   12100      297.322   -1147.4848    272.77176    468.85778    659.69688    38256.595 
   12200    296.42379   -1131.4792    267.54806    475.58069    679.99926    38256.595 
   12300    297.66319   -1125.3905    282.23428    501.95637    569.87075    38256.595 
   12400     306.0473   -1120.9719    271.01957    533.04728    425.14675    38256.595 
   12500    301.33856    -1113.308    274.05454    522.46777    414.02165    38256.595 
   12600    301.60231   -1140.1035    277.14187    499.95146    265.67879    38256.595 
   12700    306.28932   -1130.0075    282.77509     536.8609    153.56649    38256.595 
   12800    303.28296   -1167.3493    262.15815    465.31667      43.3793    38256.595 
   12900    302.74238    -1152.797    299.39755    514.66555    257.43422    38256.595 
   13000    302.57867   -1148.2611    273.65888    492.72301   -74.694189    38256.595 
   13100    305.39155   -1130.6971    282.21599    531.55518    95.719716    38256.595 
   13200    308.30652   -1143.9828    272.03856    521.26456    278.95461    38256.595 
   13300    313.59936   -1102.1125    273.45973    588.47384     344.7314    38256.595 
   13400    295.16696   -1083.7539    289.91558    539.99405    114.81562    38256.595 
   13500    301.14817   -1117.0459    304.18996    548.00499    152.30798    38256.595 
   13600    294.65622   -1092.6154    286.09403    525.00295    13.755625    38256.595 
   13700    290.80715   -1156.2839    282.38822    440.23511    393.09237    38256.595 
   13800    304.20468   -1113.0543    303.28751    564.90619    175.64448    38256.595 
   13900    312.18269   -1125.5808    288.80546     573.9495    167.85424    38256.595 
   14000     297.4238   -1169.0925    282.70698    457.64523   -185.46904    38256.595 
   14100    297.66664   -1166.8663    285.62274    463.88467   -163.56591    38256.595 
   14200    301.17663   -1151.5605    288.73155    498.16056    -239.6382    38256.595 
   14300    301.99669    -1133.808    291.42031    522.30756    58.880802    38256.595 
   14400     296.8896   -1107.3326    294.23978    528.52395    154.95168    38256.595 
   14500    311.86577    -1163.412    289.86409    535.74489    653.41338    38256.595 
   14600    293.54837   -1122.8722    309.47111      513.117    330.07949    38256.595 
   14700    297.56701    -1131.992    308.45514    521.14106    226.70954    38256.595 
   14800    303.42606   -1157.2895      299.067    512.93199    403.68511    38256.595 
   14900    299.72396   -1129.4746    292.28685    517.23722   -85.626544    38256.595 
   15000    293.94048   -1124.8736    301.89794    505.31427    180.81659    38256.595 
   15100    295.84608   -1162.1406    321.55234    496.31296    389.65439    38256.595 
   15200    301.49652   -1171.8599    292.69182    483.26695    612.76417    38256.595 
   15300    294.47563     -1173.34    316.94318     474.3115    274.26934    38256.595 
   15400    302.84531   -1176.3296     302.6915    494.89203    286.31981    38256.595 
   15500    301.44882   -1193.2056    302.73686    471.75081    732.31664    38256.595 
   15600    296.69632    -1218.732    290.99665    413.00806    492.63451    38256.595 
   15700    291.62166   -1211.9828    301.77296    407.60163    174.56876    38256.595 
   15800    291.68665   -1179.6143    306.00804    444.49886    149.80564    38256.595 
   15900    287.94234   -1226.5834    296.49155     371.0931    -308.4248    38256.595 
   16000    300.99027   -1223.1024    292.02958    429.07456    33.203105    38256.595 
   16100    293.02077   -1228.9149    317.46992    412.68889    -284.2679    38256.595 
   16200    302.18575    -1227.301    294.08973    432.33837   -162.27347    38256.595 
   16300    292.19815   -1175.2513    317.97916    463.14442   -285.53631    38256.595 
   16400    296.96099   -1171.8043    318.77886    488.91398     400.3229    38256.595 
   16500    306.67395   -1184.7824    306.92294    507.97198    159.36463    38256.595 
   16600    298.05021   -1187.1631    322.88919    482.58753    451.67639    38256.595 
   16700    291.99382   -1152.5238    321.92016    488.88957    409.92082    38256.595 
   16800    295.36847   -1208.7111    327.06363    453.09545    397.81123    38256.595 
   16900    295.16431   -1222.9148    299.92329    410.82891    397.29273    38256.595 
   17000    302.11205   -1176.0462    307.49735    496.66772    518.85229    38256.595 
   17100    295.56023   -1175.2543    317.80254    478.15775    360.97319    38256.595 
   17200     303.4342   -1164.3389    324.21725    531.06958    190.27519    38256.595 
   17300    294.66993   -1204.0146    317.65382    445.22559    550.31367    38256.595 
   17400    298.11401   -1197.2192    312.65498    462.58561    47.044491    38256.595 
   17500    305.06785   -1178.6637    309.94737    509.85726   -150.62882    38256.595 
   17600    301.36869   -1204.2741    299.97273    457.55601    135.57183    38256.595 
   17700    293.27123   -1174.1258    295.76549    446.90534    127.70563    38256.595 
   17800    292.10059    -1185.162    321.91354    456.72723   -11.314534    38256.595 
   17900    297.23525   -1194.9528    315.77997    464.00593    39.608634    38256.595 
   18000     299.7838   -1165.1671    315.91317    505.44151    99.998349    38256.595 
   18100    304.21993   -1229.1796    293.43234    438.99459   -327.04754    38256.595 
   18200    308.14736   -1214.1951    323.24711    501.54153   -9.2391859    38256.595 
   18300     295.8929   -1193.4091    300.64911    444.35285    94.961491    38256.595 
   18400    279.74098   -1215.4491    316.47562     365.1503   -8.3910144    38256.595 
   18500    296.12406   -1200.5719    316.59472    454.18024    284.88556    38256.595 
   18600    307.08631   -1204.3001    314.99062    498.38528     579.7184    38256.595 
   18700    293.20434   -1226.8414    329.08776    427.20981    345.58982    38256.595 
   18800    288.56821   -1218.7638    316.13091    401.38028    871.55268    38256.595 
   18900     296.1556   -1205.2804    342.09029    475.10979    216.75746    38256.595 
   19000    305.81127   -1192.1451    314.16275    503.95063    871.95814    38256.595 
   19100    307.13357   -1217.7794     314.4842    484.61321    393.24592    38256.595 
   19200    315.29049    -1188.868    308.47244    544.37316    508.24396    38256.595 
   19300    305.31574   -1200.8986    324.08389    502.87907    307.04634    38256.595 
   19400    303.75093   -1196.6317    336.15848    512.14924    13.225278    38256.595 
   19500    299.55915   -1162.2624    311.57492    502.99279    166.84936    38256.595 
   19600    294.20687   -1167.4345    296.94519    459.00449   -106.68095    38256.595 
   19700    310.92655   -1214.5948    348.32933    538.78302    228.16841    38256.595 
   19800    290.28244   -1234.8654    320.23477    397.12897   -252.05603    38256.595 
   19900    299.48729   -1200.4213    318.42917    471.36344    -34.03289    38256.595 
   20000    292.88652   -1193.6928    336.52612    466.36062    -127.2272    38256.595 
   20100    300.17309   -1199.7016    329.77353    486.52655   -148.29217    38256.595 
   20200     299.7547   -1201.4731    332.08794    485.17873    28.230544    38256.595 
   20300    289.59545   -1185.0591    336.94029    460.53639     469.5217    38256.595 
   20400    304.24357   -1172.3861    331.03851    533.50107    463.04762    38256.595 
   20500    300.79454   -1160.8943    334.24778    532.61631    875.26219    38256.595 
   20600    298.45811   -1205.5731    341.56507    484.69668    1023.7629    38256.595 
   20700    299.68816   -1205.3414    341.63212    490.55402    502.15847    38256.595 
   20800    292.68935   -1239.2152    343.66014     427.0812    -91.50233    38256.595 
   20900    292.17196   -1201.1725    331.06372    450.18945    25.113413    38256.595 
   21000    297.91663    -1233.394    339.68979    452.55368   -148.39511    38256.595 
   21100    287.21019   -1233.5258    337.71477    402.06535   -440.47013    38256.595 
   21200    306.22264   -1205.1974    331.01987    509.61441   -21.379724    38256.595 
   21300      302.688   -1200.2623    302.89924    470.45615    59.118768    38256.595 
   21400    291.99241   -1165.1817     323.0023    477.30746   -147.46846    38256.595 
   21500    302.66204   -1202.8846    339.34519    504.16258    235.96876    38256.595 
   21600    307.55438   -1179.1839    345.64472    556.27073    501.10796    38256.595 
   21700    302.22391   -1192.1672    324.06964    497.62447    660.49875    38256.595 
   21800    305.49148   -1234.4417    327.47686    473.52312    695.91051    38256.595 
   21900    304.08768   -1197.4418    324.72014    501.42258    726.75354    38256.595 
   22000    302.50166   -1176.4523     348.2125     538.7374    473.56162    38256.595 
   22100    301.52064   -1188.5203    339.59622    513.61992    458.63097    38256.595 
   22200     306.9237   -1194.4471    336.17499    528.68787    59.437288    38256.595 
   22300    296.55599    -1213.721    317.70321    444.09145    146.71787    38256.595 
   22400    297.47014   -1224.2072    337.54375    457.57671    741.66593    38256.595 
   22500    292.69425   -1264.5506    355.24152    413.34934    464.75081    38256.595 
   22600    290.96709   -1259.6549    348.33836    403.53693    318.54185    38256.595 
   22700    296.42938   -1232.5374    351.03824    458.03798    95.828434    38256.595 
   22800    288.64878   -1217.7864    339.90024    426.49108   -149.62872    38256.595 
   22900     304.6636   -1205.0109    332.07783    503.81373   -255.75324    38256.595 
   23000    303.00487    -1185.156    351.96415    536.05925    222.55978    38256.595 
   23100     304.9251   -1226.0653    347.21405    499.07718   -58.184335    38256.595 
   23200     292.8942   -1204.5821    347.50406    466.48392   -252.36408    38256.595 
   23300    298.35787   -1225.3896    343.36049    466.22265    99.123083    38256.595 
   23400    300.78199    -1195.409    362.24605    526.04317    434.47315    38256.595 
   23500    298.84653   -1258.7013    344.66053    436.41921   -8.7935011    38256.595 
   23600    304.78081   -1229.1443    333.64045     481.7726     477.4955    38256.595 
   23700     300.3667   -1230.5605    357.55913    484.32816    211.93101    38256.595 
   23800    298.49766   -1201.8775    341.02427    488.03023   -40.546408    38256.595 
   23900    312.03657   -1219.8994    338.07119    528.23636    193.36531    38256.595 
   24000    305.13837   -1221.5492    339.36215    496.70514    130.18986    38256.595 
   24100    303.10702   -1197.9568    361.32991    533.08579   -47.819688    38256.595 
   24200    295.19102   -1249.4657    353.09858    437.57395   -88.697835    38256.595 
   24300    298.16571   -1240.0163    348.53973    455.90686    355.70706    38256.595 
   24400    293.93779   -1221.6918    348.39403     454.9801    374.51268    38256.595 
   24500    292.12318   -1232.2393    370.59715    458.43562   -41.378397    38256.595 
   24600    306.92335   -1274.3274     332.5508    445.18179    25.083746    38256.595 
   24700    281.13547   -1213.7383    359.12314    415.81022   -14.454471    38256.595 
   24800    291.80257   -1228.7506     355.1394    445.01774    371.07901    38256.595 
   24900    307.49108    -1220.786    351.65297    520.39089    131.13399    38256.595 
   25000    307.04855   -1256.0093    356.65456    488.16942    475.09424    38256.595 
   25100    301.59293   -1238.5013    338.16535    462.53476    663.29065    38256.595 
   25200    298.47793   -1225.9216    347.75632    470.62905    192.98685    38256.595 
   25300    311.26676   -1243.7414    344.79495    507.63935    574.48986    38256.595 
   25400     300.8233    -1237.681    350.99948    472.71132     298.0666    38256.595 
   25500    310.08617   -1276.9845    377.81044    502.07685    653.37936    38256.595 
   25600    308.18218   -1242.7556    363.14527     513.0366    411.47613    38256.595 
   25700    308.94216   -1220.3157    365.49514    541.26063    753.59045    38256.595 
   25800    309.01186   -1266.8978    334.20674    463.70508     681.6618    38256.595 
   25900    302.34516   -1270.4878    360.28235    456.06451    247.92594    38256.595 
   26000    310.03026   -1249.5328    361.46165    512.92709    366.84637    38256.595 
   26100    309.54264   -1273.6153    370.91827     496.0977    181.41269    38256.595 
   26200    312.44931     -1216.56    363.33871     558.7084    540.12937    38256.595 
   26300    296.55223   -1260.2351    342.51415     422.3713    286.04966    38256.595 
   26400    293.59741   -1276.7372    378.71203     428.7145    270.61722    38256.595 
   26500    303.99774   -1245.4411    366.35855    494.65526    683.54013    38256.595 
   26600    314.34629   -1255.2019    355.85312    521.15321    348.33853    38256.595 
   26700    303.32706   -1240.8475    363.66388    493.52349    416.23667    38256.595 
   26800    299.48359   -1251.4501    370.63758    472.52625    420.91121    38256.595 
   26900    297.39328   -1261.9976    357.96658    439.86189    269.56717    38256.595 
   27000    307.48127   -1266.2907    346.96398    470.15288    98.257153    38256.595 
   27100    303.41701   -1307.8353    376.67272    439.95102    129.82651    38256.595 
   27200    298.23999   -1244.1121    355.49978    459.10679   -252.90076    38256.595 
   27300    307.28291   -1242.1345    352.58576    499.03448   -349.53521    38256.595 
   27400     302.1502   -1311.3608    358.02491    412.05304    -335.5826    38256.595 
   27500    292.08335     -1276.66    367.57043    410.80824    151.37661    38256.595 
   27600    299.65834   -1268.7494    358.02826    443.40734    569.22879    38256.595 
   27700    308.52133    -1303.353    357.33151    448.15798    142.42643    38256.595 
   27800    299.74677   -1315.1628    358.46379    397.82905    326.06417    38256.595 
   27900    309.00565   -1280.0255    357.68243    474.02508    636.62332    38256.595 
   28000    305.08696   -1262.2723    374.56437    490.95198    511.76659    38256.595 
   28100    294.87474   -1251.6733    368.68317     449.5217    653.89505    38256.595 
   28200    291.30071   -1246.2714    369.82395    439.91363    1339.3632    38256.595 
   28300    297.67905   -1270.3739    371.42522    446.23556    1031.9398    38256.595 
   28400    299.25292   -1295.5296    374.39718    431.16397    1511.2674    38256.595 
   28500    298.47077   -1288.1902    362.47295    423.04472    841.89554    38256.595 
   28600    303.49172   -1265.9899    362.22384     467.6851    776.77657    38256.595 
   28700    293.90675   -1242.8743    363.11929    448.38259     306.4911    38256.595 
   28800     297.5456   -1265.8221    357.14994      435.909     283.7367    38256.595 
   28900    296.81942   -1273.1607    364.94715    433.08609   -289.40888    38256.595 
   29000    292.78518   -1276.3337    367.24231    413.97792    -124.7565    38256.595 
   29100    291.79004   -1191.2234    382.63925    509.98826   -12.771493    38256.595 
   29200    310.43782   -1231.7571    386.18896    557.27181    48.255536    38256.595 
   29300    298.09725   -1242.2772    381.67502    486.47186    83.581739    38256.595 
   29400     292.0592   -1277.2551    374.99832    417.53193   -56.483822    38256.595 
   29500    296.04718   -1239.4377    380.57454    478.94685   -32.291891    38256.595 
   29600    307.61501   -1249.4942    383.84101    524.43071   -212.42662    38256.595 
   29700    294.94861   -1271.3468     378.0051    439.50391   -460.93896    38256.595 
   29800    304.23828   -1229.5374    372.13084    517.41832   -318.37022    38256.595 
   29900    300.82321   -1228.0799    372.83007    504.14257   -104.59338    38256.595 
   30000    304.20824   -1267.9678    370.19509    476.91639   -10.649066    38256.595 
   30100    296.76793   -1234.9726    372.15484    478.24918   -127.51653    38256.595 
   30200    305.46701   -1248.3603    393.44197    525.45904    92.974038    38256.595 
   30300     296.1961   -1250.0856    387.03943    475.43676   -234.98054    38256.595 
   30400    299.70092   -1230.0644    377.49154    501.74807    347.16088    38256.595 
   30500    304.26431   -1245.5606    364.81342    494.19526    40.265877    38256.595 
   30600    298.53607   -1229.6789    382.69864    502.07675   -2.2324384    38256.595 
   30700    298.34721   -1224.7896    371.82196    495.23596    196.14125    38256.595 
   30800    293.86316   -1207.3681    382.62256    503.19504    133.07754    38256.595 
   30900    299.74734   -1212.8562    374.59854    516.27297    427.42521    38256.595 
   31000     297.0391   -1249.5626    382.44928    475.17903    184.92619    38256.595 
   31100    298.32124   -1234.4982    379.02376    492.61178    404.52909    38256.595 
   31200    294.03401   -1210.8558    389.13695    506.99381   -134.37878    38256.595 
   31300    301.55374   -1224.1258    378.68857    517.25642    159.95469    38256.595 
   31400    295.98721    -1237.578    362.53093    462.49195    113.40942    38256.595 
   31500     307.6551   -1276.1385    367.23471    481.36134    101.14753    38256.595 
   31600    307.71211   -1267.5177    390.27687    513.28194     223.3933    38256.595 
   31700    299.80918   -1246.7218     373.3684    481.45671    579.24372    38256.595 
   31800    303.49395   -1266.0908    376.98746    482.35794    594.16284    38256.595 
   31900    303.09019   -1291.2594    383.70129    462.07861    28.881454    38256.595 
   32000    292.52173   -1265.2743    397.49008    454.09459   -218.74018    38256.595 
   32100    306.21889   -1250.6596    379.11922     512.2346   -72.904933    38256.595 
   32200    298.80475   -1261.9411    394.22435    482.55441   -135.09471    38256.595 
   32300    305.69855   -1216.1678    387.51967    552.77552    493.08111    38256.595 
   32400     304.0956   -1235.9644    389.33933    527.55494    71.248177    38256.595 
   32500    304.33787   -1270.6351     394.1752    498.81493   -162.69194    38256.595 
   32600    298.86677   -1233.8184    387.81521    504.54824   -370.66674    38256.595 
   32700     300.1876   -1216.5704    381.93908    521.88878   -564.20063    38256.595 
   32800    307.27614   -1258.6907    369.30387    499.16575   -41.573864    38256.595 
   32900    291.53993   -1230.6173    381.06398    467.88876    147.75241    38256.595 
   33000    296.63171   -1300.8959     346.2458    385.80136   -163.60457    38256.595 
   33100    303.25933   -1279.1848    373.51395     464.7302   -485.55143    38256.595 
   33200    300.99628   -1283.6865    393.87623    470.36421   -394.03549    38256.595 
   33300     301.2243   -1247.1993    384.63695     498.6426   -55.564358    38256.595 
   33400    307.24356    -1252.651    387.04274    522.79709    -418.4946    38256.595 
   33500    306.33908   -1204.9348    390.47101    569.85437   -596.19835    38256.595 
   33600    292.40677   -1254.7738    394.51125    461.09671   -291.11057    38256.595 
   33700    308.19626   -1305.7409    372.47449    459.44418    134.21313    38256.595 
   33800    301.43092    -1229.765    396.85336    529.22697    309.82183    38256.595 
   33900    304.30035   -1247.7717     382.2809    509.61445    565.70752    38256.595 
   34000    302.44267   -1248.0764    393.20049    511.83468    706.76532    38256.595 
   34100    291.38323   -1260.1293    394.88478    451.48954    285.30083    38256.595 
   34200    292.49099   -1223.0059    382.03488    480.76889     272.2456    38256.595 
   34300    299.56188   -1296.2067    392.58197    450.06782    228.84249    38256.595 
   34400    294.81075    -1253.506    423.74806    502.46475     204.2727    38256.595 
   34500    315.91808   -1255.8435    395.58718    567.34843    428.24533    38256.595 
   34600    302.68628   -1217.3181    389.95169    540.44503    271.54189    38256.595 
   34700     293.6954   -1230.5048    391.75326      488.431   -4.4882797    38256.595 
   34800    302.37889   -1236.4099    368.30519    498.31769   -157.19168    38256.595 
   34900    295.38549     -1208.95    393.97428    519.84414   -559.28386    38256.595 
   35000    311.82831   -1185.1559    396.10102    620.06852   -291.99974    38256.595 
   35100    294.58397   -1225.3614    389.57174    495.40818   -181.74508    38256.595 
   35200    299.82264   -1193.4544    403.59648    565.01298   -70.726709    38256.595 
   35300    293.15729    -1237.808    398.77236    485.71513   -59.033236    38256.595 
   35400    299.87821    -1230.532    399.53243    524.12245   -172.45437    38256.595 
   35500    291.41627   -1262.6935    381.74836     435.9382   -93.711517    38256.595 
   35600    299.25351   -1286.1539    396.16639     462.3116   -24.587431    38256.595 
   35700    290.64573   -1264.4728    385.95978    434.88835    84.597732    38256.595 
   35800    305.96242   -1245.3521    379.20175    516.46566    181.23619    38256.595 
   35900    290.42487   -1304.2569    384.36555    392.51191    287.04442    38256.595 
   36000    295.57408    -1340.299    399.94337    395.31647    -233.7291    38256.595 
   36100    306.41625   -1354.0111    407.21251    437.86825    472.75052    38256.595 
   36200    298.03529   -1330.6599    419.21408    435.34822    471.75912    38256.595 
   36300    307.58453   -1359.5241    396.88971    427.31188    565.71595    38256.595 
   36400    311.59217   -1323.3003    369.69103    454.44713     105.9852    38256.595 
   36500    291.38369   -1325.2938    383.55308    374.99541    300.02216    38256.595 
   36600      290.279   -1292.5453    377.87888    397.07767   -34.309836    38256.595 
   36700    302.98251   -1302.1994    380.24797     447.1987    202.63902    38256.595 
   36800    294.90719   -1308.4831     394.3428    418.51812    277.01596    38256.595 
   36900    294.13302   -1327.4885    412.24636    413.91796    213.50384    38256.595 
   37000    292.86091   -1305.4575      413.302    431.25602    418.34424    38256.595 
   37100    298.79875   -1273.6542    402.80784    479.39773    47.784079    38256.595 
   37200    296.22984   -1301.1753    372.28633     409.7464   -277.26681    38256.595 
   37300    303.06867   -1273.1983    379.95717    476.29829   -85.549885    38256.595 
   37400    302.71937   -1267.6347    409.87577    510.20213    25.450521    38256.595 
   37500    306.46729   -1273.3459     392.9875    504.53905    29.400316    38256.595 
   37600     304.7804   -1286.0452    403.22944    494.45885    301.82582    38256.595 
   37700    295.10127   -1298.5137    398.01446    433.03621    78.681417    38256.595 
   37800    301.19513   -1293.5437    384.23653    451.76592    299.16712    38256.595 
   37900    304.18871    -1306.133    399.21043    467.67823    260.00857    38256.595 
   38000    302.92567   -1271.4484    401.63574    499.08056   -284.16559    38256.595 
   38100    296.07395   -1308.6584    397.56042    426.83295   -53.832085    38256.595 
   38200    294.93208   -1306.7471    385.06178    411.08562    -360.7952    38256.595 
   38300     296.6854   -1308.4441    403.94613    436.19608    107.09453    38256.595 
   38400    298.17338   -1286.1834    387.77496    449.00962    487.19104    38256.595 
   38500    304.95019   -1317.6904    389.92824     450.2797    710.66205    38256.595 
   38600    299.50141   -1314.0884    383.03102    422.36192    452.28893    38256.595 
   38700    289.32951   -1306.7438     384.8152    385.52482    458.45701    38256.595 
   38800    296.39557   -1323.5291    416.12673    431.98193    571.29894    38256.595 
   38900    300.10739   -1295.2316    398.96114    459.88726    572.61232    38256.595 
   39000      304.269   -1239.4122    408.16884    543.72025    921.74073    38256.595 
   39100    302.38828   -1278.5419    425.98766    513.91062     927.8393    38256.595 
   39200     298.7963   -1309.2913    384.98376    425.92546    598.77988    38256.595 
   39300    295.03692   -1303.6049    415.98195    445.62178    268.84635    38256.595 
   39400    302.56236   -1329.2035    425.40565    463.45366    171.55704    38256.595 
   39500    305.11407   -1324.3247    403.69993    458.15765    230.30598    38256.595 
   39600    301.13407   -1254.8345    424.58978    530.55249   -54.904242    38256.595 
   39700    309.04066   -1317.1886    397.39825    476.73601    102.11151    38256.595 
   39800    296.63196    -1267.226    402.69369    475.92023   -565.56244    38256.595 
   39900    294.13153   -1269.5296    408.08543     467.7092   -502.37188    38256.595 
   40000    304.99605   -1279.1406    418.86433    517.97281   -491.77706    38256.595 
   40100    290.13949   -1299.6113    408.51116    420.01356   -254.35017    38256.595 
   40200    303.15054   -1330.2766    384.36009    423.99291   -251.42064    38256.595 
   40300    291.03553   -1301.9714    416.66113    429.85256   -44.359552    38256.595 
   40400    284.85183   -1377.8415    380.62048    289.99819   -288.32776    38256.595 
   40500    294.32519   -1373.7895    394.75979    350.99876    87.137558    38256.595 
   40600    305.83111    -1363.673    392.24936    410.59904    118.35428    38256.595 
   40700     306.2939   -1399.4408     395.0596    379.73276     573.0386    38256.595 
   40800    301.81151   -1411.0397    393.59368    346.41246   -25.236102    38256.595 
   40900    302.35716   -1389.4851     407.5941    384.43324   -117.35757    38256.595 
   41000    301.53839   -1379.1744     386.9533    370.40322    -42.64544    38256.595 
   41100    295.68832   -1343.6197     399.8853    392.45397    156.94526    38256.595 
   41200    295.27198   -1391.5967    400.91372     343.6239    158.49315    38256.595 
   41300    305.98434   -1379.3026    405.21371    408.62614    466.02923    38256.595 
   41400    290.12335   -1406.2315    390.93691    295.74617    503.54056    38256.595 
   41500    301.03169   -1441.9455    409.61439    328.00346    412.55532    38256.595 
   41600    295.25992   -1410.8436    405.27991    328.68879    71.177226    38256.595 
   41700    308.18147   -1395.7462    403.81644    400.71392    350.97547    38256.595 
   41800    295.39998   -1392.9051    409.65477    351.63502    2.8767001    38256.595 
   41900    306.21357   -1345.2281    411.63802    450.16088   -37.195106    38256.595 
   42000    289.52922   -1353.9436    411.40861    365.82096   -299.49846    38256.595 
   42100    297.13484   -1336.5769    418.10286    424.25099   -36.104156    38256.595 
   42200    298.54597   -1337.0448    408.32184     420.3788   -130.06393    38256.595 
   42300    307.56011   -1338.0559    407.01011    458.79005    345.44854    38256.595 
   42400    293.15936   -1332.9024    429.57236    421.43015   -277.36079    38256.595 
   42500    299.24766   -1300.9464    402.01586    453.34207    386.51744    38256.595 
   42600    304.48539   -1327.8307    407.23331    455.34404    235.27674    38256.595 
   42700    302.48662   -1322.2573    413.55751    458.20945    382.83287    38256.595 
   42800    300.87732   -1337.2987    432.44337    454.78163    488.47235    38256.595 
   42900    292.74198   -1342.8898    429.06202    409.04626   -71.441452    38256.595 
   43000    304.99622   -1289.7571    436.08649    524.57929    146.74014    38256.595 
   43100    303.50461   -1331.7144    448.06413    487.85914    99.248353    38256.595 
   43200    307.23726    -1282.167    425.53381    531.74368     405.7533    38256.595 
   43300    299.92609   -1283.4084    439.90057     511.8306     257.4321    38256.595 
   43400    301.35394   -1305.3096    442.50355    498.98471    518.53899    38256.595 
   43500    297.42616   -1295.9558    431.80204    479.88771    642.02485    38256.595 
   43600    310.41564   -1289.7267    422.49337    535.50635     804.3105    38256.595 
   43700    303.41118    -1284.022     432.4275    519.49272    504.22915    38256.595 
   43800    304.69956   -1298.1371    439.60446    518.37666    65.074649    38256.595 
   43900    305.48727   -1318.8074    419.08394    480.74538      81.9953    38256.595 
   44000    305.28311   -1328.9555    409.93071    460.52155    242.71337    38256.595 
   44100    296.25443   -1270.0032    446.16636    514.90969     464.2479    38256.595 
   44200    293.84218   -1301.6727    404.14658    430.31973    275.81977    38256.595 
   44300    296.69255   -1361.5187    429.82473    409.03242   -31.725582    38256.595 
   44400     300.9786   -1352.4072    412.08431    419.77178    118.67462    38256.595 
   44500    291.79252    -1359.281    392.03377    351.33631    263.13325    38256.595 
   44600    307.32755   -1319.9105    430.30256    499.17697   -26.648455    38256.595 
   44700    296.96475   -1357.7558    412.32733    396.52791   -161.15927    38256.595 
   44800    309.33784   -1305.1326    442.93994    535.67661   -590.67887    38256.595 
   44900    295.38519   -1266.0121    449.04057    517.84699   -469.06221    38256.595 
   45000    297.24769   -1272.3834    433.11635    503.96794   -767.06514    38256.595 
   45100    302.64292   -1290.9871    425.49064    502.11907   -941.90806    38256.595 
   45200    296.61648   -1337.4692    426.97375     429.8872   -314.01433    38256.595 
   45300    298.66244   -1337.7864    416.05669    427.89834   -706.21244    38256.595 
   45400    295.25775   -1340.9568    437.74924    431.03507   -816.66177    38256.595 
   45500    298.81575   -1294.9062     433.7256     489.1403   -303.04266    38256.595 
   45600     311.4858   -1296.0841    418.78203    530.27364    58.837768    38256.595 
   45700    303.69553   -1273.2927    450.96882    550.04831    282.48943    38256.595 
   45800    296.98931   -1287.8153    418.43306    472.68514    314.72698    38256.595 
   45900    295.91426   -1297.6177    427.37547    466.96709    103.35627    38256.595 
   46000    308.53093   -1326.9658    407.98808    475.24515    396.37964    38256.595 
   46100    298.76613   -1369.5168     436.7842      417.364    85.536718    38256.595 
   46200    294.46596    -1312.634    440.47126    458.50184    137.12622    38256.595 
   46300    301.09036    -1303.034    429.24301    486.80864   -278.14368    38256.595 
   46400    296.68926   -1282.6787    459.46682    517.49964    360.12431    38256.595 
   46500    289.38242   -1312.4384    443.63546    438.88961   -422.38336    38256.595 
   46600    309.45078   -1320.1326    406.97681    485.22381    208.36023    38256.595 
   46700    293.61767   -1281.7489    414.69874    459.78111   -176.75946    38256.595 
   46800    295.39609   -1298.1509    420.99093    457.70777    -211.4419    38256.595 
   46900    301.58387   -1331.5018    424.38542    455.71342    447.66413    38256.595 
   47000    301.88349    -1280.897    420.13684     503.4236    239.78554    38256.595 
   47100    300.88169   -1321.0352    430.15527    468.77679    522.44068    38256.595 
   47200    291.90833   -1312.3508     413.1551    419.91124   -205.67116    38256.595 
   47300    293.84169   -1310.2711    432.87196     450.4444   -272.69405    38256.595 
   47400    295.84787   -1297.9235    437.33712    476.32292    213.59807    38256.595 
   47500    292.55655   -1354.6338     421.3825    388.78481    58.729423    38256.595 
   47600    301.63985   -1330.0379    441.89175    474.93663    138.27748    38256.595 
   47700    297.83176   -1329.0505    439.54482    456.36864    210.29806    38256.595 
   47800    300.54166     -1368.26    431.22583    421.08598    137.65324    38256.595 
   47900    311.44312    -1332.635     432.6363    507.38411    639.90689    38256.595 
   48000    302.80869   -1391.7644    433.80285    410.40313   -48.801559    38256.595 
   48100    293.11686   -1368.7405    421.82692    377.65456   -170.18121    38256.595 
   48200    301.61247   -1372.0613    422.68238    413.58012    13.845679    38256.595 
   48300    305.07003   -1379.5301    412.44292    411.49623    47.948399    38256.595 
   48400    298.87187   -1355.7798    409.58096     404.3756   -898.76281    38256.595 
   48500    304.43643   -1326.9852     417.4523    466.18731   -545.16934    38256.595 
   48600    299.42218   -1317.6639    446.65975    482.05718    -223.4744    38256.595 
   48700    301.37212   -1329.9387    417.80069    449.73493   -31.034226    38256.595 
   48800    306.47492   -1325.0766    420.83854     480.6939   -317.27124    38256.595 
   48900    314.15734   -1323.6748    427.09305    523.06634   -196.68507    38256.595 
   49000    305.75459   -1307.2969    424.28846    498.66846    302.05026    38256.595 
   49100    288.88951    -1314.268    439.25513    430.45225    144.15533    38256.595 
   49200    293.52892   -1285.6514     442.9986    483.77743   -125.72703    38256.595 
   49300    285.13713     -1311.41     452.6149    429.71336   -95.197176    38256.595 
   49400    303.15548   -1300.7807    456.95869    526.10973    312.43056    38256.595 
   49500    297.05219   -1283.1045    450.15165     509.3987    246.38536    38256.595 
   49600    303.25541     -1247.53    427.31294    550.16627   -458.46416    38256.595 
   49700    298.76566   -1277.7425    448.32622    520.67832   -448.71512    38256.595 
   49800    295.78696   -1322.9018    396.87532    410.60761    119.26113    38256.595 
   49900    304.73605    -1319.507     439.1421    496.70929    6.3256548    38256.595 
   50000     301.5782   -1341.0788    423.88783    445.61323    228.89251    38256.595 
   50100    298.13016   -1348.0564    438.37086    437.53724    704.23385    38256.595 
   50200    295.17219   -1330.1265    445.50168    449.23121    258.29355    38256.595 
   50300    296.77431   -1318.6021    436.46943     458.9632    251.90307    38256.595 
   50400    300.55809   -1328.6104    418.26401    447.84801   -212.79262    38256.595 
   50500    302.67933   -1293.7454    435.97967    510.01437    89.451604    38256.595 
   50600    301.64946   -1269.6782    435.14578     528.5937    738.87133    38256.595 
   50700    300.29081   -1287.2025    427.61272    497.39682     1008.992    38256.595 
   50800    295.11672    -1372.618    436.11512    397.10238    821.28839    38256.595 
   50900    304.44616   -1349.0912    433.65627    460.32928    309.93371    38256.595 
   51000    294.17933   -1349.4907    427.65715    407.53583    558.49164    38256.595 
   51100    301.94869   -1342.5555    425.01886     446.9417    138.19183    38256.595 
   51200    300.63351   -1322.7995    446.43269    482.16834     221.6533    38256.595 
   51300    300.04952   -1344.0295    421.13941    433.00613     118.4382    38256.595 
   51400    299.06325   -1319.7861     447.0406    478.69378    204.57767    38256.595 
   51500    306.84384   -1336.1701    427.04207    477.47106   -76.462778    38256.595 
   51600    297.22429   -1314.7841    450.59874     478.9439    109.21425    38256.595 
   51700    303.95531   -1271.6344    428.96021    530.87186    130.56922    38256.595 
   51800    306.11219   -1291.7091    439.95145    531.53521    112.48409    38256.595 
   51900    295.74761   -1280.8217    435.80941    491.44397    146.19198    38256.595 
   52000    300.42152   -1316.2886    446.54942      487.838    220.53043    38256.595 
   52100     299.6276   -1348.3497    434.71331    440.35318    77.459604    38256.595 
   52200    299.45458   -1320.3996    431.23305     464.0411    214.57343    38256.595 
   52300    304.15943    -1329.771    450.93726    495.63476    512.26586    38256.595 
   52400    296.01942   -1301.7942    453.15051    489.04089   -143.36535    38256.595 
   52500    303.15923   -1327.8474    442.00304    484.10431    298.65357    38256.595 
   52600    311.44282   -1275.9886    436.41203    567.80494    298.45536    38256.595 
   52700    301.31905    -1268.101     444.7208    538.25293   -54.231322    38256.595 
   52800    310.05036   -1279.7219    428.54228    549.90946   -380.71344    38256.595 
   52900    304.21534   -1255.3944     440.6983    560.02509    43.625961    38256.595 
   53000     314.8886   -1286.4914    450.76942    587.23066   0.89020835    38256.595 
   53100    295.40347    -1273.904    454.95857    515.95566   -470.25162    38256.595 
   53200    292.27046   -1293.1464    451.78703    479.38398    -398.5374    38256.595 
   53300    307.24119   -1300.5814    426.03149     513.8448   -57.368582    38256.595 
   53400    299.91151   -1345.6427    444.67541    454.30518    78.349292    38256.595 
   53500    303.92625   -1328.5273    424.71994    469.60745    71.521725    38256.595 
   53600    292.70199   -1307.3909    414.49024    429.79268   -49.356087    38256.595 
   53700    291.12214   -1325.1644    414.94821    405.33801   -51.125494    38256.595 
   53800     307.7812   -1366.6991    431.01627    455.15212    227.34461    38256.595 
   53900    299.52826    -1372.261    429.83281    411.11252   -153.39427    38256.595 
   54000    316.82498   -1356.2333    459.01522    534.48489    69.524094    38256.595 
   54100    305.25378   -1359.3509    432.91913    452.98195   -674.34839    38256.595 
   54200    297.12461   -1390.5176    433.62243    385.78363   -127.93502    38256.595 
   54300    297.34473   -1374.0366    435.63935    405.27622   -345.64843    38256.595 
   54400    303.06338   -1382.9098    429.75387    416.35963   -247.62251    38256.595 
   54500    298.17275   -1306.2413    431.58993    472.76383     27.23206    38256.595 
   54600    293.57722   -1287.3849    449.33322    488.59679   -68.857578    38256.595 
   54700    300.43184   -1292.5632    468.78507    533.84566    332.77161    38256.595 
   54800    298.45252   -1342.3831    456.85816    463.15455    22.372484    38256.595 
   54900    301.87596   -1348.7772    444.74359     460.1161    -278.4684    38256.595 
   55000    302.37586   -1300.8877    449.92543    515.44645    139.85166    38256.595 
   55100    301.67263   -1305.7172    455.12235    512.63605    42.361238    38256.595 
   55200    302.11863    -1342.017    461.61703     484.8463   -14.036561    38256.595 
   55300    306.28505   -1347.4261    448.28133    484.92922    171.18219    38256.595 
   55400    298.25446   -1329.4134    433.42132    451.79243   -96.927551    38256.595 
   55500    300.90002   -1344.3853    437.15787     452.5121    424.03583    38256.595 
   55600    305.70103     -1341.06    454.41511    494.78991   -124.82322    38256.595 
   55700    292.85867    -1350.935    472.95154    445.41797    639.28222    38256.595 
   55800    303.19325   -1319.9508    441.97649    492.12809    768.30692    38256.595 
   55900    305.16346   -1391.6213     456.6899    444.07426    743.82469    38256.595 
   56000    306.48164   -1371.2263    474.60546    488.34148    235.25016    38256.595 
   56100    302.26223   -1334.5926    441.30982    472.61249    558.95826    38256.595 
   56200    303.93995   -1383.0677    432.89444    423.30346    123.14904    38256.595 
   56300    289.51538   -1373.9162    441.14977    375.52695   -54.590253    38256.595 
   56400    295.85571   -1289.5868    431.08663    478.44463    515.80407    38256.595 
   56500    299.24336   -1317.3514    463.84732    498.74915    436.35141    38256.595 
   56600    288.06342   -1314.4112    441.88165    429.20258   -306.70963    38256.595 
   56700    294.28849    -1301.908    435.82707    463.78172    44.180359    38256.595 
   56800    287.00637   -1304.4766     474.7734    467.25214    1003.8946    38256.595 
   56900    293.69865   -1314.9859    448.44405    460.65535    101.38549    38256.595 
   57000    296.11786   -1315.4884    445.11268    467.75367    312.39244    38256.595 
   57100    305.91545   -1313.3057    451.33778    520.43591    844.66147    38256.595 
   57200    291.48342   -1296.8012    445.25766    465.64318    163.37652    38256.595 
   57300    268.06155     -1289.51    455.17824    377.01377     288.0269    38256.595 
   57400    299.41882    -1321.092    457.17185    489.12598    325.45081    38256.595 
   57500    291.07703   -1348.9848    440.63719     407.0027    479.07435    38256.595 
   57600    294.67506   -1358.4855    437.63949    410.76345    726.89061    38256.595 
   57700    300.20811    -1296.898    439.45017    499.16502      338.536    38256.595 
   57800    314.80614   -1301.6546    429.64519    550.57055    27.584272    38256.595 
   57900    296.15107   -1317.3296    449.90042    470.85028   -187.51388    38256.595 
   58000    298.75856   -1336.6449    444.93567    458.35328    89.056286    38256.595 
   58100    299.35607   -1323.1302    436.86307    466.49544   -211.75084    38256.595 
   58200    301.44822   -1317.2475    431.51939    476.48871   -22.563708    38256.595 
   58300    293.09996   -1330.6929    429.23284    423.03171   -665.11041    38256.595 
   58400      302.378   -1310.6172    440.89056    496.69174    232.81585    38256.595 
   58500    297.25407   -1348.2468    448.54691    443.56386   -143.36811    38256.595 
   58600    304.05397    -1324.306    433.00242    482.68834    134.92539    38256.595 
   58700    297.79052   -1335.9511    424.85485    434.59172    -245.2676    38256.595 
   58800     294.6769   -1325.4834    417.74372    423.87809   -630.02751    38256.595 
   58900    310.17541   -1338.8914    392.70875    455.47148   -682.53354    38256.595 
   59000    298.28257   -1332.6058    440.50574     455.8114   -854.04816    38256.595 
   59100    297.60567   -1356.1955    426.43293    415.09005   -993.12773    38256.595 
   59200    298.83074   -1319.2295    438.87145    470.03056   -612.75946    38256.595 
   59300    282.86046   -1366.5306    449.49184    361.18163   -754.90184    38256.595 
   59400    297.23993   -1334.6906    457.46782    465.97718    62.891911    38256.595 
   59500    298.13646   -1379.5203    420.50906       388.24    45.942048    38256.595 
   59600    296.78858   -1371.5337    420.47681    390.10346    178.46674    38256.595 
   59700    301.57758   -1375.9566     418.9235    405.76825    333.85232    38256.595 
   59800    311.80331   -1324.1491    428.90905    513.77043    524.22425    38256.595 
   59900    299.64954   -1328.5521    456.45778    481.99446     226.0661    38256.595 
   60000     299.4148   -1346.5913    444.79257    451.22919   -116.53128    38256.595 
   60100    296.64969   -1329.1376    447.29443    458.68952    655.43415    38256.595 
   60200    298.64076   -1364.2709    436.15378      421.413    155.25709    38256.595 
   60300    302.87496    -1359.055    418.81948    428.42855   -26.051426    38256.595 
   60400    308.26231   -1401.6145    418.16492    409.55947    457.48412    38256.595 
   60500    307.53616    -1385.362    435.70424    440.06986    54.486771    38256.595 
   60600     292.8452   -1439.0769    434.33922    318.60291    20.062173    38256.595 
   60700    289.69202   -1374.0474    435.73307    370.77727   -206.42022    38256.595 
   60800    294.23086   -1326.4647    448.10797    451.24541   -317.87465    38256.595 
   60900    291.42741   -1345.6802    447.03083    418.28431   -234.35174    38256.595 
   61000    302.56308   -1326.3329    463.45663    504.37846   -581.40995    38256.595 
   61100    296.78499   -1341.9465    444.14162    443.33922   -458.71824    38256.595 
   61200    308.08778   -1360.8985    444.81604    476.13786   -440.05454    38256.595 
   61300    298.04155   -1382.8234    450.01135    414.01033    669.03959    38256.595 
   61400     294.7041    -1407.411    413.89761    338.22738   -199.73143    38256.595 
   61500     302.7291   -1377.8728     436.4227    426.55483    327.15142    38256.595 
   61600    297.24541   -1345.7429    443.29626    440.77801     496.2139    38256.595 
   61700    301.10437   -1372.9634    424.39206    412.09158    160.23147    38256.595 
   61800    301.16787   -1403.7294     419.5516    376.77212    320.82288    38256.595 
   61900    300.89607   -1360.4959    471.41159    470.63734    330.92432    38256.595 
   62000    306.67082   -1348.2414    449.88369    487.45949     173.1115    38256.595 
   62100    301.14551   -1379.0072    433.96843    415.81006    220.02842    38256.595 
   62200    304.02975   -1333.0324    454.98709    495.83718    243.80822    38256.595 
   62300    302.05294   -1409.9833    430.78489     385.7511    59.585832    38256.595 
   62400    288.67576   -1344.5844    438.95546    398.87029   -62.218061    38256.595 
   62500    293.70422      -1384.6    442.95552     385.5779    44.728471    38256.595 
   62600    316.91927   -1385.0093    439.81188     486.9316    53.645725    38256.595 
   62700    306.21186   -1397.9744    434.25491     420.0237    40.822499    38256.595 
   62800    297.07587   -1392.0915    451.14459    401.51167   -171.14447    38256.595 
   62900    294.90178   -1380.7171    441.22694     393.1439    311.86302    38256.595 
   63000    303.05239   -1388.3728    426.86911    407.96216    458.30039    38256.595 
   63100    299.45022   -1372.8733    451.72004    432.03473    748.62073    38256.595 
   63200    290.72095   -1337.2427    458.80514    435.30366   -90.057695    38256.595 
   63300    303.35213     -1374.68    409.07024    405.21061   -383.24633    38256.595 
   63400    298.82257   -1319.2311    432.44041    463.56107   -472.08114    38256.595 
   63500    301.95975   -1321.4476    453.26001    496.34072   -272.39837    38256.595 
   63600    293.06703    -1385.509    438.57635    377.41031    -540.0162    38256.595 
   63700    300.10742   -1402.6885    421.65406    375.12337   -749.73954    38256.595 
   63800    299.62469   -1376.7457    445.53464    422.76529   -406.19576    38256.595 
   63900    301.07964   -1401.5821    431.73473    390.70388   -34.734021    38256.595 
   64000    299.25569   -1357.4681    443.22175    438.06256    38.033033    38256.595 
   64100    291.35812   -1345.4112    443.58964    414.79893   -58.850415    38256.595 
   64200    296.65681   -1382.5298    472.34476    430.37985   -543.57411    38256.595 
   64300    302.15793    -1371.837    447.53664    441.12352   -211.98311    38256.595 
   64400    304.90665   -1354.7977     442.1368    465.18417    201.44492    38256.595 
   64500    293.60155   -1407.4701    448.54752     367.8358   -340.21443    38256.595 
   64600    308.42605   -1394.4302    454.56122    453.87997    452.47847    38256.595 
   64700    300.32856   -1389.1297    463.50384    431.53132    55.994197    38256.595 
   64800     287.8972   -1339.1162    457.73802    419.60275   -226.76985    38256.595 
   64900    289.18103   -1355.5514    413.99706    365.22814   -121.44252    38256.595 
   65000    296.46193    -1367.313    433.27718    405.64841   -384.28183    38256.595 
   65100    288.36147   -1405.3617     448.2651    345.98238   -96.397734    38256.595 
   65200    296.30959   -1437.3886    461.69775    363.30489    47.630562    38256.595 
   65300    293.88938   -1413.2417     426.6536    341.47103    196.84159    38256.595 
   65400    302.87715   -1408.5443     447.2718    407.40149     275.0312    38256.595 
   65500    289.70783   -1373.7276    454.31237    389.74778    392.37928    38256.595 
   65600    312.06991   -1408.7285    448.52232    450.00899     94.88324    38256.595 
   65700    303.50873    -1401.893    450.55477    420.18985    573.96237    38256.595 
   65800    293.04807    -1457.876    449.39188    315.77315    96.468879    38256.595 
   65900    303.38979   -1410.2233    437.71152     398.4788    184.70034    38256.595 
   66000    296.63769   -1413.9446     446.2913    372.82517    104.83188    38256.595 
   66100    295.15529   -1415.3042    436.47016    354.94553     610.7985    38256.595 
   66200    289.55536    -1387.506    453.99653    374.96451    127.81626    38256.595 
   66300     291.0209   -1428.0256    444.49989    331.57092   -255.13423    38256.595 
   66400    300.62768   -1405.9234    442.79856    395.38396    387.63646    38256.595 
   66500    305.22432   -1397.9677    463.40194    444.71489    224.12365    38256.595 
   66600     307.4541    -1388.552    474.39711    475.20196   -392.18911    38256.595 
   66700     302.4038   -1361.8164    469.18067    473.89925   -128.52755    38256.595 
   66800    309.92246     -1364.96    456.83084    492.38198   -229.94985    38256.595 
   66900    307.48839   -1371.1744    447.18962    465.52694   -79.481735    38256.595 
   67000    306.58102   -1320.5186    474.62741    539.52027    388.95294    38256.595 
   67100    300.87013   -1333.0622     462.1435    488.68575    225.95287    38256.595 
   67200    301.72119   -1351.4839    462.07254    474.03893    15.406175    38256.595 
   67300    294.61714   -1357.5049     458.0298    431.87268    222.56841    38256.595 
   67400    302.00964   -1355.6623    470.18067    479.27218    318.25455    38256.595 
   67500    302.80255    -1360.941    469.93199    477.32782    445.29138    38256.595 
   67600    310.87568   -1326.7933    455.67463    533.69989    923.60435    38256.595 
   67700    298.59614     -1357.94    439.13443    430.52291    663.52422    38256.595 
   67800    294.89532    -1411.931    444.67212    365.34601     532.7283    38256.595 
   67900    306.64401    -1422.388    450.22215    413.53021    390.80368    38256.595 
   68000    297.72863   -1391.6903    447.34632    401.06429   -40.389889    38256.595 
   68100    306.98992   -1374.8754    424.69125    437.07504   -303.18692    38256.595 
   68200    292.61777   -1400.1024     448.7182    370.92864   -294.72166    38256.595 
   68300    294.17958   -1388.5988    468.08803    408.85974   -471.03919    38256.595 
   68400    302.14581   -1438.1191     475.0632    402.31324   -350.98128    38256.595 
   68500    298.65642   -1365.6782    477.14641    461.06905   -90.550586    38256.595 
   68600    289.65752   -1403.3335    430.16224    335.76446    -128.8609    38256.595 
   68700    288.18038   -1379.1041    482.63426    405.79074     615.1415    38256.595 
   68800    292.69481   -1423.3909    429.79898    329.06897    42.851823    38256.595 
   68900     288.3713   -1374.0255     442.0839     371.1818    283.85458    38256.595 
   69000    292.83324   -1366.8935    471.44547    427.83851    121.08742    38256.595 
   69100    294.67059   -1423.9176    432.64162    340.31328    201.48846    38256.595 
   69200    290.99045    -1371.276    491.33591    435.01901    183.64653    38256.595 
   69300     293.8812   -1365.1711    448.60641    411.45744   -152.12195    38256.595 
   69400    297.74397   -1372.4805    471.40827    444.40539    75.372885    38256.595 
   69500    301.98183   -1373.7447    453.08497     443.9684    54.681007    38256.595 
   69600    298.41162    -1369.813     443.2219    421.90351    227.31554    38256.595 
   69700    307.57311   -1352.7507    428.93299    466.07694    301.27548    38256.595 
   69800    299.26382   -1321.5232    446.62642    477.44885    65.713289    38256.595 
   69900    302.47688   -1396.3867    461.64756    432.12606   -202.90792    38256.595 
   70000    289.09881   -1378.1256    465.93168    394.21708   -111.45296    38256.595 
   70100    291.01152    -1356.422    466.48472    425.11696   -114.77557    38256.595 
   70200    295.18859    -1350.002    446.10533    430.03338   -495.99789    38256.595 
   70300    304.98666   -1358.4829    478.05795    497.78177   -391.42468    38256.595 
   70400    304.43529   -1376.2943    486.90994    486.33069    -236.2742    38256.595 
   70500    302.71958   -1342.1714    443.94143    469.73201    -194.7394    38256.595 
   70600    306.42797   -1346.6982    462.92786    500.94944   -65.371793    38256.595 
   70700    300.08903   -1315.5167    467.29431    507.85231    218.47805    38256.595 
   70800    295.49689   -1324.2699    467.35001    478.40338    232.01468    38256.595 
   70900    304.54479   -1342.3612    482.59555    516.44419    723.46268    38256.595 
   71000    296.23861   -1390.5026    455.32973    403.50219    195.46278    38256.595 
   71100    301.09736   -1352.4042    458.69617     466.9232    76.675335    38256.595 
   71200    302.50428    -1350.186    458.23679    475.03979   -221.24641    38256.595 
   71300    304.57858   -1362.9401     444.6586    458.08107   -410.83251    38256.595 
   71400    301.24982   -1372.4506    473.75602    462.62564    207.78147    38256.595 
   71500    302.37661     -1378.02    459.40848    447.80057    233.60647    38256.595 
   71600     303.0145   -1405.3066    438.47657     402.4646    184.41933    38256.595 
   71700    291.43467   -1398.1332    431.82389    350.65717    489.13519    38256.595 
   71800    296.94957   -1383.5091    457.35743    415.73614    105.60586    38256.595 
   71900    312.60689   -1395.5783    461.15851    478.22201   -75.686625    38256.595 
   72000    301.68074   -1380.9356    468.82837    451.16028    297.84963    38256.595 
   72100    299.79906   -1365.9971     469.8671    458.63434   -278.22846    38256.595 
   72200    289.86952      -1363.3    442.61327    389.20696   -44.648813    38256.595 
   72300     295.4608   -1372.8967    432.54731    394.81083    208.14639    38256.595 
   72400    306.32699   -1374.4911    480.49291    490.26529   -766.00297    38256.595 
   72500    305.34674   -1406.2318     437.8722     411.4742   -94.134354    38256.595 
   72600    302.08365   -1416.9707    477.20276    425.32023   -533.62327    38256.595 
   72700    297.12745   -1429.1095    461.25033    374.83247   -561.04925    38256.595 
   72800    289.24346   -1360.6706    490.29247     436.6865    130.46635    38256.595 
   72900    302.21618   -1347.8436    525.78996    543.63344    230.36358    38256.595 
   73000    291.48378   -1366.4516    475.22119    425.95795    117.80872    38256.595 
   73100    291.38055    -1349.638    466.31855    433.40245   -512.79993    38256.595 
   73200     289.9604    -1375.877    450.45461    384.88198   -264.26577    38256.595 
   73300    306.35102   -1403.2651    450.69869     431.8057    490.13297    38256.595 
   73400    299.75099   -1386.6607    482.92692    450.81337    152.15304    38256.595 
   73500    302.21013   -1387.6473    478.29659    456.30906    775.43945    38256.595 
   73600    293.15902   -1364.8096     445.2695    405.21855    946.90584    38256.595 
   73700    298.42352   -1346.7928    465.58613    467.34179    766.93882    38256.595 
   73800    292.07389   -1429.9226    498.66273    388.59519    42.957754    38256.595 
   73900    294.99943    -1399.768    465.13309    398.44034    115.76441    38256.595 
   74000    305.60572   -1389.7265    450.25411    441.53179    -13.45833    38256.595 
   74100    294.65869   -1411.7386     456.3769    376.17381   -98.848389    38256.595 
   74200    301.77862   -1356.1135    450.06727    457.66362    -76.64777    38256.595 
   74300    301.26651   -1380.4086    473.18852    454.17551   -67.369982    38256.595 
   74400    301.36689   -1334.4543    442.56064    469.95565   -61.896254    38256.595 
   74500    304.58612   -1351.7965    461.89876    486.49888    528.23507    38256.595 
   74600     303.5735   -1369.6858    462.34208    464.47702    452.30976    38256.595 
   74700     301.8796   -1379.5865    461.86989    446.44955    237.57064    38256.595 
   74800    302.64413   -1404.5814    476.18131    439.22092    -226.7485    38256.595 
   74900    294.70019   -1420.4053    466.17959     377.4973    329.88523    38256.595 
   75000    307.05016   -1398.5957     458.3206    447.25633    285.02135    38256.595 
   75100    313.65612   -1381.4416    454.57276    490.51434   -23.412713    38256.595 
   75200    293.10319     -1315.25    461.13754    470.39385   -54.108968    38256.595 
   75300    301.71808   -1398.2484    465.27355    430.46143   -244.08405    38256.595 
   75400    305.35982   -1366.3824    481.48054    494.99109    191.71092    38256.595 
   75500     289.6145   -1373.8742    436.57785    371.44493     211.8375    38256.595 
   75600    306.21574   -1379.0972    474.28648     478.9501    242.16336    38256.595 
   75700    289.01883   -1396.4546     457.9511    367.54606   -28.434886    38256.595 
   75800    298.07966   -1395.6118    477.94381     429.3266    449.13535    38256.595 
   75900    303.19066   -1368.2938    476.16282     477.9597    685.21997    38256.595 
   76000    292.98379   -1376.8691    469.60735    416.70504    487.24551    38256.595 
   76100    298.56404   -1377.5103    493.50737    465.18049     381.9765    38256.595 
   76200    314.12901   -1382.3924    450.91077    488.03851   -178.01526    38256.595 
   76300      287.239   -1368.6358    480.58016    409.95096    108.62064    38256.595 
   76400    310.68276   -1396.8521    455.47696    462.57172    90.570677    38256.595 
   76500    304.49835   -1361.0165     464.6759    479.65942    -322.6405    38256.595 
   76600    304.99365   -1370.8065    501.87608    509.30787    446.96614    38256.595 
   76700    292.98428   -1351.6247    484.75191    457.09621   -128.56966    38256.595 
   76800    307.26207   -1375.3286    460.36104    473.52143    399.63453    38256.595 
   76900    291.31896   -1379.0962    449.10612    386.45346   -417.60551    38256.595 
   77000     300.7802   -1421.5328    468.91939    406.58461   -67.480351    38256.595 
   77100    296.76016   -1346.4642    448.57413    443.14181    4.8103573    38256.595 
   77200    295.02298   -1380.5103     494.3458     447.0172    639.56544    38256.595 
   77300     297.0854   -1355.1225    476.39488    463.77396    574.40287    38256.595 
   77400    306.83492   -1379.2139    467.78131    475.12622    626.83041    38256.595 
   77500    284.68599   -1356.9482    481.06984    410.59149    97.220076    38256.595 
   77600    306.87656   -1412.9866    474.49463    448.25497    354.01342    38256.595 
   77700    297.53143   -1378.3651    480.02211    446.17411    554.53519    38256.595 
   77800    297.58055   -1378.0061    501.36312     468.0961    451.39354    38256.595 
   77900    310.01398   -1369.2209    472.53288    504.23668       297.14    38256.595 
   78000    295.27261   -1355.1188     475.2966    454.48755   -121.31265    38256.595 
   78100    298.91047   -1361.2214    485.94116     475.4687   -489.60567    38256.595 
   78200    303.67517   -1375.0401     477.5536    474.79368   -221.23823    38256.595 
   78300    295.05379   -1400.4466    456.27027    389.14461   -755.75191    38256.595 
   78400     302.5962   -1381.1428    466.33976    452.60142   -250.25746    38256.595 
   78500    296.38717   -1353.4473    470.47193    456.37102    198.60587    38256.595 
   78600    307.68045   -1340.2035    481.11433    531.29046    518.36046    38256.595 
   78700    302.45892   -1354.8302     474.4933    486.44714    580.08248    38256.595 
   78800    293.95315   -1375.1511    499.97197    453.16808    464.31789    38256.595 
   78900    292.81863   -1376.7254    459.80338    406.29846    745.96122    38256.595 
   79000     298.1835   -1313.7614     459.0385    492.74089     489.5119    38256.595 
   79100    313.64582    -1354.105     500.4742    563.70585    3.2887733    38256.595 
   79200    298.27355   -1399.7344    459.15647    407.29285   -269.40934    38256.595 
   79300    299.73866   -1361.4621    446.05004    439.07937    176.09646    38256.595 
   79400    313.29522   -1402.4932     456.5235    469.78256    22.928988    38256.595 
   79500    284.28101   -1387.0139     475.2455    372.87131   -329.22164    38256.595 
   79600    294.06206   -1390.5629    486.82621    425.10271    -99.92844    38256.595 
   79700    301.55492    -1404.933    466.80104    424.56694    498.48812    38256.595 
   79800     301.9926   -1341.8528    445.53738     468.3614    137.28575    38256.595 
   79900     302.9702   -1341.6053     469.9425    497.43166    198.14263    38256.595 
   80000    309.02448   -1365.3136    477.74949     508.8891    213.93064    38256.595 
   80100    309.04958   -1409.2013    463.67759    451.04288    487.45935    38256.595 
   80200      294.168   -1402.0693    456.48933    383.73812   -154.59404    38256.595 
   80300    295.06395   -1378.6709    451.09235    405.78832    373.68868    38256.595 
   80400    304.23517   -1350.8698     478.0725    502.01346    164.57079    38256.595 
   80500    297.48955   -1376.9948    462.95522    430.28828   -18.009257    38256.595 
   80600    302.01517     -1406.64    473.35997    431.49877   -78.271219    38256.595 
   80700    293.89294   -1383.9052    448.09787    392.26781     331.4036    38256.595 
   80800    295.54788   -1375.6445    466.90406    426.81321   -68.601148    38256.595 
   80900    300.07632   -1333.9649    495.16689    517.21925    224.88816    38256.595 
   81000    306.85931   -1354.5019    482.79303    514.96019    346.51226    38256.595 
   81100    287.63261   -1394.4118    468.23637    373.60988    182.22692    38256.595 
   81200     304.2343   -1407.6565    463.50363    430.65392    124.33705    38256.595 
   81300    299.73627   -1376.6532    453.69077    431.51825    617.90449    38256.595 
   81400    298.81806   -1377.7809    441.81392    414.36438    551.81176    38256.595 
   81500    294.04094   -1421.0908    466.79247    374.44568    99.749229    38256.595 
   81600    308.19588   -1368.6919    470.89907    494.91599    279.24237    38256.595 
   81700    299.83153   -1369.4089    457.94411     443.4463    398.57719    38256.595 
   81800    290.42149   -1406.1268     442.7239    348.98512    125.77294    38256.595 
   81900     304.6326   -1362.5043    469.23003    483.33247   -195.73665    38256.595 
   82000    297.06294   -1392.3839    466.98743    417.00368   -446.67673    38256.595 
   82100    305.73784   -1384.4563    466.51505    463.65995    -542.2002    38256.595 
   82200    302.92948   -1424.1157    476.76436    421.55915   -272.40507    38256.595 
   82300    295.89622   -1407.4356    445.76538    375.45755   -375.59351    38256.595 
   82400    281.61023   -1387.3571    473.67863    358.89228   -734.42567    38256.595 
   82500    301.49569     -1386.69    447.57748    423.31876    42.459504    38256.595 
   82600    293.99623   -1394.3725    478.66651    412.83598   -40.226626    38256.595 
   82700    298.98436   -1360.6882    467.74863    458.14329   -270.71821    38256.595 
   82800    312.69469   -1437.3978    446.89192     422.5327   -678.91949    38256.595 
   82900    294.13593   -1435.4985    451.98008    345.65485   -434.07897    38256.595 
   83000    301.57337   -1379.7575    449.54116    432.56604   -248.03849    38256.595 
   83100    292.92009   -1348.8277    480.13251     454.9838   -368.67979    38256.595 
   83200    305.27669   -1404.3103    454.33761    429.54458    208.83797    38256.595 
   83300    303.48798   -1361.5454    483.43479    493.32368    423.81735    38256.595 
   83400    298.83873    -1396.555    470.73085    424.60056    30.429707    38256.595 
   83500    299.66014   -1366.6727    457.37925     444.8432    11.851866    38256.595 
   83600    292.60608   -1396.2276    474.18237    400.21478    108.85964    38256.595 
   83700    294.64316   -1420.8715    451.47832    362.07218    193.70834    38256.595 
   83800    288.16851   -1433.0575    465.71224    334.86174    110.28527    38256.595 
   83900    301.01822   -1421.7789    463.95751    402.45227   -96.112212    38256.595 
   84000    301.13343   -1413.0417    458.15726    405.90988    403.54258    38256.595 
   84100    293.73984   -1437.4237    445.93655    335.89618    769.95439    38256.595 
   84200    284.29323   -1449.6489    437.08879    272.13492    497.87162    38256.595 
   84300    312.33237   -1452.8884    455.22586    413.73867    444.43178    38256.595 
   84400     298.8341    -1454.314     438.9763    335.06606    415.98891    38256.595 
   84500    297.12558   -1429.7009    438.34382     351.3261    11.151987    38256.595 
   84600    286.10233   -1447.8233    461.29595    306.34281    74.160872    38256.595 
   84700    299.88556   -1426.0531    440.60381      369.706    67.807458    38256.595 
   84800    305.52869   -1406.4692    459.72302    433.90988   -17.590792    38256.595 
   84900    288.16396   -1397.3977    467.56315    372.35189     104.5653    38256.595 
   85000    321.68525   -1412.4873    437.05475    478.23346       72.464    38256.595 
   85100    292.39603    -1403.932    467.60152    384.98025    172.96577    38256.595 
   85200    302.54637    -1409.195    454.41259    412.39685   -355.95317    38256.595 
   85300    300.90889   -1395.6255    464.27089    428.42501   -14.746957    38256.595 
   85400    299.72744   -1387.3979    443.07197    410.11476   -152.32834    38256.595 
   85500    300.29755   -1357.0815    444.99937    444.93493    348.20515    38256.595 
   85600    308.67543   -1404.2483    471.30661    461.93418    386.63233    38256.595 
   85700    301.47785   -1450.1675    474.22728    386.41043   -235.15533    38256.595 
   85800    306.01537   -1387.3289    453.77591    449.30234    306.64448    38256.595 
   85900    300.67135   -1363.1729     462.2324    457.76566   -313.80846    38256.595 
   86000    305.24287   -1403.8303    462.82705    438.36118   -94.833451    38256.595 
   86100    303.95753    -1416.533    462.92014    419.94325   -161.75893    38256.595 
   86200    297.58249   -1395.5165    483.56317    432.79458   -94.062332    38256.595 
   86300    308.50126   -1400.7893     448.5078    441.80731    146.81444    38256.595 
   86400     290.6099   -1437.0855    455.15544    331.30932   -108.87511    38256.595 
   86500    294.16876   -1436.8674    456.87414    349.32834   -431.52358    38256.595 
   86600    309.92082   -1389.0419    489.51973    500.98156   -464.16364    38256.595 
   86700     302.6197   -1401.6315      447.344    413.22316   -344.79285    38256.595 
   86800    295.20722   -1357.1316    439.73516    416.61779   -773.91473    38256.595 
   86900    297.11572   -1379.6806    456.42855    419.38652   -485.92766    38256.595 
   87000    302.57134   -1390.8238    469.43774    445.90598    -440.8031    38256.595 
   87100    296.02784   -1365.4848    425.40778    397.64558    376.06591    38256.595 
   87200    295.63676   -1406.1508    483.37204     413.1766    805.64694    38256.595 
   87300    295.03111   -1436.0319    481.28904    378.47556    74.351389    38256.595 
   87400    291.67877   -1420.3827    449.76214    347.44892   -18.531269    38256.595 
   87500    292.71486   -1412.0287    456.80339    367.52625     323.2553    38256.595 
   87600    293.91094   -1387.5773     449.1987    389.77796   -48.915586    38256.595 
   87700    292.48398   -1381.2443    474.49968     414.9636   -256.64538    38256.595 
   87800    308.43734   -1418.6715     432.7853    407.91384   -379.89268    38256.595 
   87900      303.947   -1393.6192    440.55057    420.43993   -46.152748    38256.595 
   88000    294.83341   -1376.9187    464.21506    419.62149   -186.42285    38256.595 
   88100    299.50987   -1367.7479    482.35951    468.06915    266.49516    38256.595 
   88200    299.60588   -1344.2405    454.94486    464.59572    277.75829    38256.595 
   88300    298.82521   -1378.1486    475.10008    447.31517    347.37666    38256.595 
   88400    309.03864   -1416.0464    452.79897    433.26976    326.44363    38256.595 
   88500     288.9628   -1431.6447    464.07456    338.22616    64.649472    38256.595 
   88600    295.80579   -1397.1192    460.70028    400.30023    728.01706    38256.595 
   88700    295.07652    -1404.744    440.37546    369.05515    91.750278    38256.595 
   88800    306.92106   -1454.1517    470.15593    402.95227    173.34263    38256.595 
   88900    291.65777   -1351.9276    481.77402    447.82106    292.35631    38256.595 
   89000    301.85101   -1385.3018    504.19305    482.92816    -112.1819    38256.595 
   89100    305.13594   -1362.4219    466.05258    482.51197    495.37465    38256.595 
   89200    288.67759    -1427.961    457.70899    334.25548     467.6756    38256.595 
   89300    297.14513   -1421.4798     485.7119    407.00355    406.86766    38256.595 
   89400     303.5784   -1386.4031    464.22255    449.66237    167.96002    38256.595 
   89500    298.28074   -1416.8133    446.95272     378.0426    459.53975    38256.595 
   89600    303.04189   -1362.3693    437.30714    444.35632    286.33177    38256.595 
   89700    298.91622   -1392.4183    461.85676    420.21336    927.40747    38256.595 
   89800    286.32089   -1417.9531    497.79397    373.69869    562.49766    38256.595 
   89900    305.78457    -1364.457    479.35242    496.70779     480.2965    38256.595 
   90000    298.45114   -1372.8526     453.5979    429.41858   -29.997492    38256.595 
   90100    303.78008   -1385.4206    464.48857    451.82219   -49.778025    38256.595 
   90200    299.29655   -1405.4867    478.34111    425.34801   -372.77738    38256.595 
   90300    298.40948    -1376.928     465.0401    436.59713    30.966834    38256.595 
   90400    295.60107   -1371.7519    463.01132    427.05353    138.51025    38256.595 
   90500     305.8261   -1412.9629    473.36247    442.39963    53.437409    38256.595 
   90600    309.00324   -1366.6961    476.10714    505.76829    649.78415    38256.595 
   90700    293.08416   -1389.4021    455.30102    390.31927    292.39881    38256.595 
   90800    285.28454   -1410.4762    504.36644     383.0648     618.2771    38256.595 
   90900    306.06394   -1432.6455    480.37177    430.80102     636.4139    38256.595 
[...]
  984600    298.92165   -1429.0549    518.73179    440.47629   -60.299784    38256.595 
  984700    302.02107   -1445.2699    541.67469    461.21019   -227.35162    38256.595 
  984800    295.78035   -1436.7729    516.47325     416.3045    85.597568    38256.595 
  984900    301.36541   -1428.8456    547.53792    480.53484    -242.0421    38256.595 
  985000    289.89582   -1426.9416    489.61177    372.68275    -352.9456    38256.595 
  985100    301.32274    -1417.552    521.81115    465.90895   -451.98086    38256.595 
  985200    291.94593   -1422.3988    536.86591    433.74394   -383.20886    38256.595 
  985300    299.20994   -1457.1122    556.06399      451.054     358.6013    38256.595 
  985400    299.87451    -1483.292    499.02796    370.84131    911.21798    38256.595 
  985500     312.1912   -1517.6519    536.89088     430.0023    638.01376    38256.595 
  985600      306.677   -1485.1636    507.63244    408.31401    339.60539    38256.595 
  985700    308.90381   -1501.6682    524.04043    418.28014    509.99021    38256.595 
  985800     300.9926   -1446.1561    515.26984    429.27164    453.15075    38256.595 
  985900    298.45742   -1457.8614      545.744     436.5842    40.008329    38256.595 
  986000    302.76936   -1459.5392    503.12398    411.77172    859.46139    38256.595 
  986100    308.42134   -1485.1684    501.14133    409.70059   -423.31336    38256.595 
  986200    293.15769   -1458.9975    493.25279     359.0079    182.27341    38256.595 
  986300    296.49042   -1466.8802    551.38081    424.31357   -233.02036    38256.595 
  986400    295.99411   -1436.8271    509.19279    409.93579    112.28028    38256.595 
  986500    301.23862   -1451.8417    515.54891    424.97684    7.6480773    38256.595 
  986600    295.42058   -1417.5104    513.59208    431.06014    178.82822    38256.595 
  986700    305.21341   -1400.2569    524.12588    503.10033   -214.07921    38256.595 
  986800    293.02691   -1448.6128    532.58542    408.13425    367.07351    38256.595 
  986900    300.43284   -1400.5123    513.76953    470.88555    805.17682    38256.595 
  987000    303.15596   -1456.8647    545.46429    458.53354      277.311    38256.595 
  987100    294.57156   -1475.2815    521.88695     377.7472    158.43388    38256.595 
  987200    295.53966   -1464.6082    498.55824    369.46657   -348.48632    38256.595 
  987300    291.71425     -1479.62    492.67264    331.28252   -135.87268    38256.595 
  987400    298.76297   -1461.1151    516.02622     404.9935    503.95193    38256.595 
  987500    299.56916   -1526.0112    482.55135    310.26564    814.38985    38256.595 
  987600    292.44161   -1513.3371    514.77897    322.95861     621.2783    38256.595 
  987700    304.17559   -1447.3612    498.46149    425.64183    606.33093    38256.595 
  987800    301.49724   -1460.4269    511.82068    413.83212    807.31146    38256.595 
  987900    295.67711   -1414.7248     511.7595    433.17238     274.4488    38256.595 
  988000    297.75108   -1500.5706    506.63781    351.57693    521.12816    38256.595 
  988100    296.00468   -1437.8227    521.74225    421.53752     -53.1043    38256.595 
  988200    304.35019   -1447.4872    507.63066    435.47402   -79.457985    38256.595 
  988300    293.91778   -1442.0052    497.14974    383.33192   -320.27365    38256.595 
  988400    297.97954   -1468.5599    506.89952    384.88175   -1098.0127    38256.595 
  988500    304.96767   -1455.9514    500.01139    422.18084   -961.96631    38256.595 
  988600    299.22673   -1488.0697     489.1431    353.25145   -1122.5192    38256.595 
  988700    304.43851   -1467.4675    486.11747    394.37962   -1015.9995    38256.595 
  988800    298.46114   -1496.4593    508.22865     360.4878   -630.86461    38256.595 
  988900    306.15589   -1468.8232     512.2096    426.87675    135.23026    38256.595 
  989000    304.00402   -1465.6003    514.57162    422.73753    198.27386    38256.595 
  989100    300.92136   -1450.9546    513.32021     422.2016   -184.38021    38256.595 
  989200    285.93281   -1471.4545    513.93223    334.58178    110.51445    38256.595 
  989300    294.62018   -1467.0004     510.8834    375.24453     -54.3488    38256.595 
  989400    304.61812   -1408.0637    524.64385    493.12145   -134.98598    38256.595 
  989500    292.87498   -1441.9205    508.71689    390.27143    136.53843    38256.595 
  989600    294.01833   -1492.2251    495.81123    332.22795    492.48901    38256.595 
  989700    307.54169   -1498.3602    507.81336    399.20581    690.17965    38256.595 
  989800    303.91975   -1498.4644    483.40838    358.32933    33.598357    38256.595 
  989900    298.34924   -1438.3835    529.27927    439.10856   0.53366214    38256.595 
  990000    296.87759   -1452.3712    529.99552    419.18687   -226.14134    38256.595 
  990100    298.58977   -1470.4716    472.77194    351.60004    89.874939    38256.595 
  990200    304.26114   -1470.4987    537.11469    441.54414    512.20552    38256.595 
  990300    297.07148   -1462.0673      515.645     396.0164    183.13892    38256.595 
  990400    310.80346   -1472.8376     506.2434      437.898    664.78743    38256.595 
  990500    296.20917   -1425.3751    503.46688    416.63372   -59.451346    38256.595 
  990600    290.61863   -1448.2598    502.02197    367.04105   -63.498085    38256.595 
  990700    312.03232   -1435.2333    513.87843    488.69048    243.91756    38256.595 
  990800     301.4439   -1466.0069      535.147    431.33739    247.94354    38256.595 
  990900    295.10398   -1452.9954    511.41449    391.96683   -133.81992    38256.595 
  991000     301.5842   -1473.5701    496.33572    385.59691    130.60981    38256.595 
  991100    300.93707   -1465.7399    496.52567    390.69268    288.49806    38256.595 
  991200    286.64072   -1505.5723    501.17885    290.90963   -116.65911    38256.595 
  991300    303.39737   -1506.8062    507.23085    371.44951    657.03814    38256.595 
  991400    301.08282    -1475.355    503.90055    389.11113      131.668    38256.595 
  991500    298.21285   -1461.7597    508.87395    394.71069   -442.49563    38256.595 
  991600    309.31128   -1509.5931    504.15499    392.31116   -415.57026    38256.595 
  991700     301.9965   -1506.4106    524.56933    382.85312     482.8483    38256.595 
  991800    295.48477   -1470.0015    478.00252    343.26949    89.346273    38256.595 
  991900    289.41229   -1506.5695    495.09364    296.35163   -690.31034    38256.595 
  992000      301.691   -1547.5114    511.47457      327.277   -249.01367    38256.595 
  992100    304.42813   -1539.7703    485.95456      321.867   -579.55165    38256.595 
  992200    296.67284   -1495.4037     490.8319    336.06546   -829.06036    38256.595 
  992300    303.96358   -1505.0756    487.50105    356.00888   -166.65334    38256.595 
  992400    309.78499   -1514.2953    497.66168    383.25623    -438.8759    38256.595 
  992500    300.91911   -1489.8316    517.74372    387.73791    1.1303534    38256.595 
  992600     295.0874   -1490.8053    500.62548    343.29296   -106.08878    38256.595 
  992700    287.82615    -1491.244    498.60566     308.0216   -642.34496    38256.595 
  992800    304.21186    -1509.245    501.86002    367.32044   -746.56749    38256.595 
  992900    305.73354   -1510.4004    505.22174    376.40309   -263.40681    38256.595 
  993000    302.01085   -1493.4324    509.51156    380.83842   -109.89111    38256.595 
  993100    298.94387   -1483.2767    536.42508    404.04825    79.138621    38256.595 
  993200    295.29907   -1503.6894    508.86817    339.60813   -518.60278    38256.595 
  993300    291.11376   -1434.0778    528.35595    409.79445   -489.44126    38256.595 
  993400     312.9224   -1479.4832    506.02292    440.60727    -197.6644    38256.595 
  993500    305.37902    -1469.182    526.04823    436.84595    399.88024    38256.595 
  993600    291.77262   -1460.0997    527.60819    386.00216    202.78241    38256.595 
  993700    306.21486   -1492.1794    510.77385    402.35127   -130.94673    38256.595 
  993800    298.69245   -1486.7053    498.10444    361.16285   -14.706177    38256.595 
  993900    293.43272   -1495.6046     492.3667    322.75755   -684.87696    38256.595 
  994000     307.1018   -1461.1434    482.68953     409.3109    47.342625    38256.595 
  994100    294.64932    -1481.388    525.79702    375.90226    333.30965    38256.595 
  994200    292.36319   -1489.2052    484.23994    316.19713   -572.71673    38256.595 
  994300     290.8394   -1516.9321    509.66468     307.0091   -424.59185    38256.595 
  994400    306.91771   -1557.1782    506.49767    336.25239   -480.05931    38256.595 
  994500    300.52814    -1520.492    500.63742     338.2044   -356.56664    38256.595 
  994600    289.91564   -1542.6919    514.42214    281.83232   -489.49643    38256.595 
  994700    307.04294   -1477.5931    499.19615    409.10188     -47.9032    38256.595 
  994800    294.20193   -1501.7878    505.82126    333.50495    222.62178    38256.595 
  994900    298.15742   -1484.4099    530.96779     393.9038     127.9334    38256.595 
  995000    306.01332   -1479.6922    516.02113    419.17496    505.11982    38256.595 
  995100    302.48665   -1519.4697    515.60708    363.04672    598.67232    38256.595 
  995200    294.79001   -1492.7471     500.4327    339.81456    366.90462    38256.595 
  995300    300.92968   -1460.4025    530.93315    430.40419    488.04097    38256.595 
  995400    297.17283   -1458.8606    493.69128    377.72734   -232.81797    38256.595 
  995500    308.20533   -1514.8326    514.19203    392.11097   -672.92902    38256.595 
  995600     303.0703   -1544.4427    493.95604    319.06012   -349.19202    38256.595 
  995700    305.77863   -1504.0581    501.37204    379.09946   -237.80408    38256.595 
  995800    297.53944   -1456.4085    529.00923    417.15411    19.377497    38256.595 
  995900    296.34699   -1496.8148    494.87469    337.22465    -115.0126    38256.595 
  996000    294.43293   -1474.0066    508.07562    364.58437   -62.925956    38256.595 
  996100    301.19037   -1463.7898    479.62645    376.88826    201.87541    38256.595 
  996200    308.13319   -1481.8826    517.77292    428.31591    153.78033    38256.595 
  996300    298.82158    -1518.023    477.30659    309.63082    137.03571    38256.595 
  996400    298.34792   -1494.1868    536.30075    390.32079    -704.5469    38256.595 
  996500    299.31745   -1487.2185    488.12008    353.48958   -975.02941    38256.595 
  996600    297.15816   -1484.8441    494.81366    352.79992   -432.56487    38256.595 
  996700    286.45662    -1468.538    523.01955    348.95269   -665.69281    38256.595 
  996800    294.08404   -1516.1725    519.84622    332.61245   -378.79886    38256.595 
  996900    300.38788   -1503.2571    512.17372    366.34186   -35.412288    38256.595 
  997000    299.06862   -1490.7355    524.97095    385.69903     345.5367    38256.595 
  997100    292.40761   -1471.4768    511.25191    361.13826    152.24471    38256.595 
  997200    313.15554   -1498.3422    522.68909    439.46794    378.16971    38256.595 
  997300     300.5534    -1487.305    517.96803    388.83616    -110.8294    38256.595 
  997400    307.35194   -1492.2875    512.46909     409.0768   -134.54939    38256.595 
  997500    297.22346   -1473.9221    472.18839    341.39182   -337.90183    38256.595 
  997600    308.51571    -1448.234    529.78639    475.70654   -367.70295    38256.595 
  997700    308.06368   -1507.1869    521.08689     406.0114    124.11183    38256.595 
  997800    310.88594   -1511.6765      495.819    389.00745    368.27257    38256.595 
  997900    301.75317   -1476.6841    498.93076    385.84149     93.57931    38256.595 
  998000    302.38466   -1468.2372    527.47481     425.6861    334.32098    38256.595 
  998100    306.36768   -1483.4986    511.78582    412.73458    376.23217    38256.595 
  998200    303.60141   -1463.4727     509.7937    418.26781   -51.974265    38256.595 
  998300    305.46439   -1500.7367    508.18794    387.81676    459.43407    38256.595 
  998400    301.50734   -1518.0321    521.97352    366.42535   -107.42413    38256.595 
  998500    302.01669   -1508.4683    514.20302    370.52036   -222.55053    38256.595 
  998600    293.36418   -1492.2159    499.67208    333.14189   -163.34793    38256.595 
  998700    298.98489   -1511.9113    491.85587    331.02983    370.42152    38256.595 
  998800    302.85251   -1462.4188    484.78312    390.92696   -325.14739    38256.595 
  998900     291.6527   -1457.5219     509.9416    370.37142     -146.303    38256.595 
  999000    300.53478   -1503.0728    510.31563    365.33188   -35.802932    38256.595 
  999100    306.99886   -1510.8295    504.41241    380.88255    11.869473    38256.595 
  999200     304.9471   -1545.3814    497.21166    329.85815       190.31    38256.595 
  999300    294.68096   -1564.9155    488.03003    254.75073     797.4226    38256.595 
  999400    295.94392   -1562.4545    532.50191    307.39082    55.071799    38256.595 
  999500     288.5762   -1564.5304    486.14788    225.66675   -798.50563    38256.595 
  999600    305.37265   -1567.1933    492.18803    304.94564   -423.89119    38256.595 
  999700    299.51159   -1550.2218    480.57756    283.82109   -76.079984    38256.595 
  999800    292.54972   -1529.1918    516.26646    309.07999    666.94891    38256.595 
  999900    297.89405   -1542.4576    534.39266    338.09088    485.06124    38256.595 
 1000000    288.09607   -1521.4338    490.91008    271.35591   -21.267457    38256.595 
 1000100    309.42705   -1519.1428    503.84563    382.97526    -316.6133    38256.595 
 1000200    290.96318   -1536.6023    505.11415    283.34769    -326.2524    38256.595 
 1000300    300.68234   -1550.3813    516.09261    324.46712    148.27389    38256.595 
 1000400    294.91444   -1533.2266    490.06578    289.53044    142.29182    38256.595 
 1000500    289.21353   -1522.4112    500.74364    285.26184   -403.44282    38256.595 
 1000600    301.62602   -1534.4489    525.76493    354.33629     432.4802    38256.595 
 1000700     300.0697   -1497.2024    508.58681    367.37182    412.19207    38256.595 
 1000800    294.64637   -1501.9818    514.34946    343.84756    264.72637    38256.595 
 1000900    297.48259   -1487.6526    500.18039    356.82424    789.71027    38256.595 
 1001000    298.16007   -1523.1304    522.93979    347.16732    245.25828    38256.595 
 1001100    295.18753   -1489.5569    508.80281     353.1712    509.63667    38256.595 
 1001200    299.16742   -1507.5383    515.67207    360.04386    489.19836    38256.595 
 1001300    299.57897   -1511.7895    523.77553    365.75582    370.29175    38256.595 
 1001400    306.91119   -1532.5308    487.08558     341.4582    723.71401    38256.595 
 1001500    293.74441   -1496.6298    492.43022    323.20435    427.04996    38256.595 
 1001600    305.40762   -1494.2272    549.46896     435.3507    169.24847    38256.595 
 1001700    294.52437   -1440.6592    497.89601    388.16534    173.56486    38256.595 
 1001800    285.72271   -1493.4527    542.75975    340.46172   -556.80296    38256.595 
 1001900    285.20116   -1490.1987    495.11746    293.71661   -627.70845    38256.595 
 1002000    301.10487   -1483.8773    502.22681    379.01465   -563.25882    38256.595 
 1002100    303.49242   -1540.8164    517.04707    347.68498   -363.19729    38256.595 
 1002200    295.96463   -1503.0713    526.13307    360.49876   -285.43243    38256.595 
 1002300    301.84075   -1514.7441    499.79163    349.03808   -282.35372    38256.595 
 1002400    299.61337   -1483.1288    499.93518    370.73168   -480.98304    38256.595 
 1002500    308.27594    -1447.086    512.99219    458.97686   -357.15518    38256.595 
 1002600    301.29391   -1482.0522    490.57491    370.04214   -136.28135    38256.595 
 1002700     301.4855   -1501.8604    505.59709    366.12193   -894.00915    38256.595 
 1002800    296.14581   -1482.7671    509.62116    365.10972   -470.31952    38256.595 
 1002900    295.23732    -1513.544    510.30983    330.91611   -18.282918    38256.595 
 1003000    293.73966   -1482.3636    490.50266    335.52158   -292.47811    38256.595 
 1003100    303.42683   -1488.1104    524.70096    407.74846   -438.64724    38256.595 
 1003200     307.2496   -1458.0256    509.98712     440.3942    293.50245    38256.595 
 1003300     301.9142   -1490.7739     512.5863    386.13492   -195.22561    38256.595 
 1003400    305.75032     -1482.95    508.56152    407.26904    395.60584    38256.595 
 1003500    294.61717   -1488.2195    522.60157    365.72998    530.67148    38256.595 
 1003600    296.66445   -1485.1712    520.38095    375.80914    427.98798    38256.595 
 1003700    291.88452   -1541.5666     480.5325    257.96522    505.17219    38256.595 
 1003800    307.62796   -1505.4779    492.16999    376.83456    487.78371    38256.595 
 1003900    308.54777   -1523.7667    470.52559    341.05788    273.17945    38256.595 
 1004000    300.03191   -1534.2514    499.35656    320.92176    506.82591    38256.595 
 1004100     308.2096   -1492.4194    508.69978    409.05126    852.44212    38256.595 
 1004200    295.70756   -1470.7927    514.14333    379.62588    270.69266    38256.595 
 1004300    297.03355   -1490.8188    511.85182    363.30029    692.50874    38256.595 
 1004400    300.36688   -1507.5147    500.13383    349.94947    469.06215    38256.595 
 1004500    308.70072   -1501.0876    523.29962    417.20219    485.22021    38256.595 
 1004600    293.28694   -1482.9101    501.38153    343.80816     440.8467    38256.595 
 1004700    304.07879   -1489.7004    496.83808    381.24175    460.10933    38256.595 
 1004800    299.18647   -1507.6159    500.75961    345.13982    147.26255    38256.595 
 1004900    300.23992   -1531.0574    508.50184    334.20103    118.27375    38256.595 
 1005000    296.71849   -1505.0257    504.82545    340.64328   -133.49096    38256.595 
 1005100    300.15994   -1463.3208    494.72793    387.80234   -354.12389    38256.595 
 1005200    289.55004   -1475.8211    520.93729    353.56614   -531.58458    38256.595 
 1005300    300.60742   -1509.0363    504.12571    353.50666   -60.189092    38256.595 
 1005400    302.91424   -1534.9162    488.69465    322.62003    347.34859    38256.595 
 1005500    299.07154   -1519.4302    517.05361    349.10014   -205.53153    38256.595 
 1005600    294.88515   -1523.3358    519.21476    328.43779   -405.86954    38256.595 
 1005628    286.31167   -1477.4764    505.77053     322.1102    290.97156    38256.595 
Loop time of 609.161 on 32 procs for 1000000 steps with 1517 atoms

Performance: 141.834 ns/day, 0.169 hours/ns, 1641.601 timesteps/s
100.0% CPU use with 32 MPI tasks x no OpenMP threads

MPI task timing breakdown:
Section |  min time  |  avg time  |  max time  |%varavg| %total
---------------------------------------------------------------
Pair    | 244.65     | 271.09     | 301.41     |  94.5 | 44.50
Bond    | 1.4732     | 1.5926     | 1.812      |   6.6 |  0.26
Neigh   | 39.681     | 39.752     | 39.826     |   0.8 |  6.53
Comm    | 253.7      | 283.9      | 310.18     |  91.8 | 46.61
Output  | 0.3927     | 0.41008    | 0.85819    |  12.6 |  0.07
Modify  | 9.3086     | 9.6383     | 9.8786     |   5.6 |  1.58
Other   |            | 2.771      |            |       |  0.45

Nlocal:        47.4062 ave          80 max          12 min
Histogram: 2 1 1 2 6 7 8 4 0 1
Nghost:        1963.31 ave        2047 max        1883 min
Histogram: 4 3 6 3 0 3 2 5 3 3
Neighs:        5321.62 ave       10037 max         771 min
Histogram: 2 1 2 5 6 8 2 5 0 1

Total # of neighbors = 170292
Ave neighs/atom = 112.25577
Ave special neighs/atom = 2.0342782
Neighbor list builds = 49773
Dangerous builds = 0
The system volume is 38256.5951838516
Lattice vectors
33.6952568950762 0 0
0 33.6952568950762 0
0 0 33.6952568950762
Total wall time: 0:10:13
