LAMMPS data file
 1515 atoms
 1016 bonds
 526 angles
 34 dihedrals
 6 impropers
 5 atom types
 6 bond types
 3 angle types
 3 dihedral types
 1 improper types
 0 15 xlo xhi
 0 15 ylo yhi
 0 15 zlo zhi
 0 0 0 xy xz yz

# Atom types
#
# 1 C_R
# 2 O_3
# 3 C_3
# 4 H_
# 5 H__HB

# Bond Coeffs
#
# 1 C_R*C_R
# 2 C_R*O_3
# 3 O_3*C_3
# 4 C_R*H_
# 5 C_3*H_
# 6 O_3*H__HB

# Angle Coeffs
#
# 1 C_R
# 2 O_3
# 3 C_3

# Dihedral Coeffs
#
# 1 D1
# 2 I1
# 3 A1

# Inversion Coeffs
#
# 1 1

 Masses

 1 12.01
 2 16
 3 12.01
 4 1.01
 5 1.01

 Atoms # full

1 1 1 0 13.5593162742216 8.65030437513881 13.4344784193136
2 1 1 0 14.1426486272398 8.10889947068404 12.2987082377387
3 1 1 0 14.0851944181587 8.40161712778466 14.7121146119493
4 1 1 0 15.280417236077 7.29337818953073 12.3862927268375
5 1 1 0 15.234555553274 7.5783892873445 14.8371835281939
6 1 1 0 15.8227084064469 7.03280207942186 13.6625333888521
7 1 2 0 12.4907773100769 9.38742086057803 13.0708927086508
8 1 2 0 13.4447055201915 8.50215783608141 11.2145375466717
9 1 3 0 12.3581782562821 9.3348800801789 11.643420163441
10 1 4 0 13.632452068141 8.81406381912662 15.5304454443768
11 1 4 0 15.7038928327432 6.89941667204624 11.5440400321137
12 1 4 0 16.6537666080944 6.44003043540682 13.731181793977
13 1 4 0 12.4474513401978 10.3338985397776 11.2128657489134
14 1 4 0 11.4010506748991 8.89104372748667 11.3632895778478
15 1 4 0 15.8249620933397 7.28812699698475 16.1721643970616
16 2 5 0 12.5000989604462 10.1611959728785 8.98443287587725
17 2 2 0 13.4600989604462 10.1611959728785 8.98443287587725
18 2 5 0 13.7000989604462 9.23119597287849 8.98443287587725
19 3 5 0 3.7759574227687 7.71070692030713 1.36534814955667
20 3 2 0 4.7359574227687 7.71070692030713 1.36534814955667
21 3 5 0 4.9759574227687 6.78070692030713 1.36534814955667
22 4 5 0 7.86207646175288 9.14429147303104 1.13679877831601
23 4 2 0 8.82207646175288 9.14429147303104 1.13679877831601
24 4 5 0 9.06207646175288 8.21429147303104 1.13679877831601
25 5 5 0 7.73380201935768 15.2200341310259 3.12496653059497
26 5 2 0 8.69380201935768 15.2200341310259 3.12496653059497
27 5 5 0 8.93380201935768 14.2900341310259 3.12496653059497
28 6 5 0 3.14583903688006 3.12396712642163 4.94399457704276
29 6 2 0 4.10583903688006 3.12396712642163 4.94399457704276
30 6 5 0 4.34583903688006 2.19396712642163 4.94399457704276
31 7 5 0 1.25596326121129 11.5010143331625 3.54761017137207
32 7 2 0 2.21596326121129 11.5010143331625 3.54761017137207
33 7 5 0 2.45596326121129 10.5710143331625 3.54761017137207
34 8 5 0 12.1448866899312 3.13952303416096 3.85446839849465
35 8 2 0 13.1048866899312 3.13952303416096 3.85446839849465
36 8 5 0 13.3448866899312 2.20952303416096 3.85446839849465
37 9 5 0 0.879778602831066 2.58015529409982 14.4213282200508
38 9 2 0 1.83977860283107 2.58015529409982 14.4213282200508
39 9 5 0 2.07977860283107 1.65015529409982 14.4213282200508
40 10 5 0 9.14670342623256 4.3127931635268 14.6434654458426
41 10 2 0 10.1067034262326 4.3127931635268 14.6434654458426
42 10 5 0 10.3467034262326 3.3827931635268 14.6434654458426
43 11 5 0 4.77402724485844 7.65010860673152 6.41214550822042
44 11 2 0 5.73402724485844 7.65010860673152 6.41214550822042
45 11 5 0 5.97402724485844 6.72010860673152 6.41214550822042
46 12 5 0 13.3109067349881 6.45623571047559 14.5535861898679
47 12 2 0 14.2709067349881 6.45623571047559 14.5535861898679
48 12 5 0 14.5109067349881 5.52623571047559 14.5535861898679
49 13 5 0 8.46218554230407 6.745804173816 7.75337587343529
50 13 2 0 9.42218554230407 6.745804173816 7.75337587343529
51 13 5 0 9.66218554230407 5.815804173816 7.75337587343529
52 14 5 0 4.44083675902337 12.7326925219409 7.01171185355633
53 14 2 0 5.40083675902337 12.7326925219409 7.01171185355633
54 14 5 0 5.64083675902337 11.8026925219409 7.01171185355633
55 15 5 0 5.04823737239465 9.98466504895128 6.25278679188341
56 15 2 0 6.00823737239465 9.98466504895128 6.25278679188341
57 15 5 0 6.24823737239465 9.05466504895128 6.25278679188341
58 16 5 0 3.18706650330685 14.256800933918 8.82540753926151
59 16 2 0 4.14706650330685 14.256800933918 8.82540753926151
60 16 5 0 4.38706650330685 13.326800933918 8.82540753926151
61 17 5 0 1.32785032896325 7.65750552102923 1.58382089808583
62 17 2 0 2.28785032896325 7.65750552102923 1.58382089808583
63 17 5 0 2.52785032896325 6.72750552102923 1.58382089808583
64 18 5 0 4.24613954077475 8.02053468808532 12.6895263441838
65 18 2 0 5.20613954077475 8.02053468808532 12.6895263441838
66 18 5 0 5.44613954077475 7.09053468808532 12.6895263441838
67 19 5 0 5.79701442548074 5.08438031928614 7.92934752884321
68 19 2 0 6.75701442548074 5.08438031928614 7.92934752884321
69 19 5 0 6.99701442548074 4.15438031928614 7.92934752884321
70 20 5 0 7.34136882514693 2.23987125250511 12.9299679212272
71 20 2 0 8.30136882514693 2.23987125250511 12.9299679212272
72 20 5 0 8.54136882514693 1.30987125250511 12.9299679212272
73 21 5 0 4.29005127676763 6.60152077832259 5.08208023267798
74 21 2 0 5.25005127676763 6.60152077832259 5.08208023267798
75 21 5 0 5.49005127676763 5.67152077832259 5.08208023267798
76 22 5 0 9.55988586807623 6.54594035743736 0.119086126796901
77 22 2 0 10.5198858680762 6.54594035743736 0.119086126796901
78 22 5 0 10.7598858680762 5.61594035743736 0.119086126796901
79 23 5 0 3.94992459492758 7.99453160417266 10.3746506350581
80 23 2 0 4.90992459492758 7.99453160417266 10.3746506350581
81 23 5 0 5.14992459492758 7.06453160417266 10.3746506350581
82 24 5 0 3.99442498848774 2.0909921852313 6.67349505471066
83 24 2 0 4.95442498848774 2.0909921852313 6.67349505471066
84 24 5 0 5.19442498848774 1.1609921852313 6.67349505471066
85 25 5 0 6.40127104983665 12.0627782148682 3.77363809850067
86 25 2 0 7.36127104983665 12.0627782148682 3.77363809850067
87 25 5 0 7.60127104983665 11.1327782148682 3.77363809850067
88 26 5 0 0.0733718722779304 14.6189441338088 2.78223553556018
89 26 2 0 1.03337187227793 14.6189441338088 2.78223553556018
90 26 5 0 1.27337187227793 13.6889441338088 2.78223553556018
91 27 5 0 3.684864795506 13.7534695867822 4.06466979067773
92 27 2 0 4.644864795506 13.7534695867822 4.06466979067773
93 27 5 0 4.884864795506 12.8234695867822 4.06466979067773
94 28 5 0 11.8197249602247 2.34042635694146 7.43639447260648
95 28 2 0 12.7797249602247 2.34042635694146 7.43639447260648
96 28 5 0 13.0197249602247 1.41042635694146 7.43639447260648
97 29 5 0 0.994697306742892 1.71985009726137 1.36930782347918
98 29 2 0 1.95469730674289 1.71985009726137 1.36930782347918
99 29 5 0 2.19469730674289 0.789850097261369 1.36930782347918
100 30 5 0 1.19892778384499 0.810949157867581 10.8495835913345
101 30 2 0 2.15892778384499 0.810949157867581 10.8495835913345
102 30 5 0 2.39892778384499 -0.119050842132419 10.8495835913345
103 31 5 0 8.89545591708273 1.4797970808018 13.5866382310633
104 31 2 0 9.85545591708273 1.4797970808018 13.5866382310633
105 31 5 0 10.0954559170827 0.5497970808018 13.5866382310633
106 32 5 0 10.9424906798825 3.04522856878117 8.18812010111287
107 32 2 0 11.9024906798825 3.04522856878117 8.18812010111287
108 32 5 0 12.1424906798825 2.11522856878117 8.18812010111287
109 33 5 0 10.668879341539 3.34215296240523 12.8358700673562
110 33 2 0 11.628879341539 3.34215296240523 12.8358700673562
111 33 5 0 11.868879341539 2.41215296240523 12.8358700673562
112 34 5 0 11.6197455329541 8.8218444042746 13.5455893096514
113 34 2 0 12.5797455329541 8.8218444042746 13.5455893096514
114 34 5 0 12.8197455329541 7.8918444042746 13.5455893096514
115 35 5 0 6.63668180161156 0.726429028846324 4.33462312677875
116 35 2 0 7.59668180161156 0.726429028846324 4.33462312677875
117 35 5 0 7.83668180161156 -0.203570971153677 4.33462312677875
118 36 5 0 4.27714322271757 1.31328468950465 0.0233478262089193
119 36 2 0 5.23714322271757 1.31328468950465 0.0233478262089193
120 36 5 0 5.47714322271757 0.383284689504653 0.0233478262089193
121 37 5 0 5.8403140136227 15.1717457947694 6.36241877451539
122 37 2 0 6.8003140136227 15.1717457947694 6.36241877451539
123 37 5 0 7.0403140136227 14.2417457947694 6.36241877451539
124 38 5 0 9.04513995439745 3.02759563591331 3.04371176753193
125 38 2 0 10.0051399543975 3.02759563591331 3.04371176753193
126 38 5 0 10.2451399543975 2.09759563591331 3.04371176753193
127 39 5 0 0.73708872936666 12.3828155423421 0.88757315883413
128 39 2 0 1.69708872936666 12.3828155423421 0.88757315883413
129 39 5 0 1.93708872936666 11.4528155423421 0.88757315883413
130 40 5 0 3.52514062120579 9.79464416433126 14.1043729009107
131 40 2 0 4.48514062120579 9.79464416433126 14.1043729009107
132 40 5 0 4.72514062120579 8.86464416433126 14.1043729009107
133 41 5 0 5.92185112458654 1.84129204874858 2.35755328671075
134 41 2 0 6.88185112458654 1.84129204874858 2.35755328671075
135 41 5 0 7.12185112458654 0.911292048748582 2.35755328671075
136 42 5 0 7.7471078925021 7.89194082183763 8.23765421868302
137 42 2 0 8.7071078925021 7.89194082183763 8.23765421868302
138 42 5 0 8.9471078925021 6.96194082183763 8.23765421868302
139 43 5 0 0.986952980021015 9.48300921631977 3.76920162001625
140 43 2 0 1.94695298002101 9.48300921631977 3.76920162001625
141 43 5 0 2.18695298002101 8.55300921631977 3.76920162001625
142 44 5 0 1.13875960509293 11.3589141126163 8.352644238621
143 44 2 0 2.09875960509293 11.3589141126163 8.352644238621
144 44 5 0 2.33875960509293 10.4289141126163 8.352644238621
145 45 5 0 14.1118559699692 1.77528680692427 7.30425064684823
146 45 2 0 15.0718559699692 1.77528680692427 7.30425064684823
147 45 5 0 15.3118559699692 0.845286806924268 7.30425064684823
148 46 5 0 12.1089318596944 10.3744449482206 8.74538872623816
149 46 2 0 13.0689318596944 10.3744449482206 8.74538872623816
150 46 5 0 13.3089318596944 9.44444494822063 8.74538872623816
151 47 5 0 6.80366743516177 14.3997484880406 6.28228262183256
152 47 2 0 7.76366743516177 14.3997484880406 6.28228262183256
153 47 5 0 8.00366743516177 13.4697484880406 6.28228262183256
154 48 5 0 6.01169197747484 2.9985157788638 7.60883439914323
155 48 2 0 6.97169197747484 2.9985157788638 7.60883439914323
156 48 5 0 7.21169197747484 2.0685157788638 7.60883439914323
157 49 5 0 13.3083353941049 14.197794141192 4.43056234857067
158 49 2 0 14.2683353941049 14.197794141192 4.43056234857067
159 49 5 0 14.5083353941049 13.267794141192 4.43056234857067
160 50 5 0 10.4045491344016 4.71854637185112 1.13612366490997
161 50 2 0 11.3645491344016 4.71854637185112 1.13612366490997
162 50 5 0 11.6045491344016 3.78854637185112 1.13612366490997
163 51 5 0 11.4960635667387 7.07953698275611 14.044266109122
164 51 2 0 12.4560635667387 7.07953698275611 14.044266109122
165 51 5 0 12.6960635667387 6.14953698275611 14.044266109122
166 52 5 0 5.99387447859161 4.99752199900337 2.09685313864611
167 52 2 0 6.95387447859161 4.99752199900337 2.09685313864611
168 52 5 0 7.19387447859161 4.06752199900337 2.09685313864611
169 53 5 0 13.7853712860681 13.1940048890561 6.4893607632257
170 53 2 0 14.7453712860681 13.1940048890561 6.4893607632257
171 53 5 0 14.9853712860681 12.2640048890561 6.4893607632257
172 54 5 0 -0.10630579970777 12.2223643462081 1.75149423186667
173 54 2 0 0.85369420029223 12.2223643462081 1.75149423186667
174 54 5 0 1.09369420029223 11.2923643462081 1.75149423186667
175 55 5 0 5.87475506166928 11.7395379456598 10.6945069553331
176 55 2 0 6.83475506166928 11.7395379456598 10.6945069553331
177 55 5 0 7.07475506166928 10.8095379456598 10.6945069553331
178 56 5 0 12.8451126760058 4.59642211249098 2.40131373982877
179 56 2 0 13.8051126760058 4.59642211249098 2.40131373982877
180 56 5 0 14.0451126760058 3.66642211249098 2.40131373982877
181 57 5 0 6.23508521399461 5.94159855199046 0.4730940295849
182 57 2 0 7.19508521399461 5.94159855199046 0.4730940295849
183 57 5 0 7.43508521399461 5.01159855199046 0.4730940295849
184 58 5 0 6.20182517959736 9.29788431310095 0.0723578932229429
185 58 2 0 7.16182517959736 9.29788431310095 0.0723578932229429
186 58 5 0 7.40182517959736 8.36788431310095 0.0723578932229429
187 59 5 0 1.40541875196621 3.63592971390113 9.56263530766591
188 59 2 0 2.36541875196621 3.63592971390113 9.56263530766591
189 59 5 0 2.60541875196621 2.70592971390113 9.56263530766591
190 60 5 0 8.02687985284254 6.97152354213409 5.09651711094193
191 60 2 0 8.98687985284254 6.97152354213409 5.09651711094193
192 60 5 0 9.22687985284254 6.04152354213409 5.09651711094193
193 61 5 0 2.07050748911686 4.60515015333891 13.2454238750506
194 61 2 0 3.03050748911686 4.60515015333891 13.2454238750506
195 61 5 0 3.27050748911686 3.67515015333891 13.2454238750506
196 62 5 0 0.649591131806374 6.23262265505269 9.86273021204397
197 62 2 0 1.60959113180637 6.23262265505269 9.86273021204397
198 62 5 0 1.84959113180637 5.30262265505269 9.86273021204397
199 63 5 0 6.31603302128613 9.71477416152135 11.3600408658385
200 63 2 0 7.27603302128613 9.71477416152135 11.3600408658385
201 63 5 0 7.51603302128613 8.78477416152135 11.3600408658385
202 64 5 0 0.654956807121635 1.80750792887062 5.98973367596045
203 64 2 0 1.61495680712163 1.80750792887062 5.98973367596045
204 64 5 0 1.85495680712163 0.877507928870618 5.98973367596045
205 65 5 0 10.4702372608893 2.52232341020368 4.25181499449536
206 65 2 0 11.4302372608893 2.52232341020368 4.25181499449536
207 65 5 0 11.6702372608893 1.59232341020368 4.25181499449536
208 66 5 0 13.042332071783 8.52761457249522 4.36617919709533
209 66 2 0 14.002332071783 8.52761457249522 4.36617919709533
210 66 5 0 14.242332071783 7.59761457249522 4.36617919709533
211 67 5 0 3.14269076261669 15.0996968061104 6.54377100407146
212 67 2 0 4.10269076261669 15.0996968061104 6.54377100407146
213 67 5 0 4.34269076261669 14.1696968061104 6.54377100407146
214 68 5 0 8.15507795356214 12.5284609342366 7.38109416444786
215 68 2 0 9.11507795356214 12.5284609342366 7.38109416444786
216 68 5 0 9.35507795356214 11.5984609342366 7.38109416444786
217 69 5 0 8.12329282329418 4.31479283067398 4.40052437013946
218 69 2 0 9.08329282329418 4.31479283067398 4.40052437013946
219 69 5 0 9.32329282329418 3.38479283067398 4.40052437013946
220 70 5 0 8.6025726520177 12.7774643948674 8.40795770986006
221 70 2 0 9.5625726520177 12.7774643948674 8.40795770986006
222 70 5 0 9.8025726520177 11.8474643948674 8.40795770986006
223 71 5 0 1.61116920338944 0.951412441618741 3.01367555977777
224 71 2 0 2.57116920338944 0.951412441618741 3.01367555977777
225 71 5 0 2.81116920338944 0.0214124416187405 3.01367555977777
226 72 5 0 3.75658425313421 12.2546441729087 5.07233319687657
227 72 2 0 4.71658425313421 12.2546441729087 5.07233319687657
228 72 5 0 4.95658425313421 11.3246441729087 5.07233319687657
229 73 5 0 11.485434552161 11.5285329105705 8.45281317131594
230 73 2 0 12.445434552161 11.5285329105705 8.45281317131594
231 73 5 0 12.685434552161 10.5985329105705 8.45281317131594
232 74 5 0 7.76555955919437 6.80030641303398 12.7197295194492
233 74 2 0 8.72555955919437 6.80030641303398 12.7197295194492
234 74 5 0 8.96555955919437 5.87030641303398 12.7197295194492
235 75 5 0 7.49562175056897 10.7552082456555 2.35629313741811
236 75 2 0 8.45562175056897 10.7552082456555 2.35629313741811
237 75 5 0 8.69562175056897 9.82520824565552 2.35629313741811
238 76 5 0 10.903143319739 12.5426374705881 8.21729155839421
239 76 2 0 11.863143319739 12.5426374705881 8.21729155839421
240 76 5 0 12.103143319739 11.6126374705881 8.21729155839421
241 77 5 0 5.36711889828555 7.50721833942458 12.3028398037422
242 77 2 0 6.32711889828555 7.50721833942458 12.3028398037422
243 77 5 0 6.56711889828555 6.57721833942458 12.3028398037422
244 78 5 0 9.77906434142031 6.20671664405614 13.9243766188156
245 78 2 0 10.7390643414203 6.20671664405614 13.9243766188156
246 78 5 0 10.9790643414203 5.27671664405614 13.9243766188156
247 79 5 0 6.8384747758694 11.5135451526754 13.0047707492486
248 79 2 0 7.7984747758694 11.5135451526754 13.0047707492486
249 79 5 0 8.0384747758694 10.5835451526754 13.0047707492486
250 80 5 0 3.93470744878985 5.77963900793344 11.2787358462811
251 80 2 0 4.89470744878985 5.77963900793344 11.2787358462811
252 80 5 0 5.13470744878985 4.84963900793344 11.2787358462811
253 81 5 0 3.63078498674557 10.7988555919752 14.5429174241144
254 81 2 0 4.59078498674557 10.7988555919752 14.5429174241144
255 81 5 0 4.83078498674557 9.86885559197515 14.5429174241144
256 82 5 0 5.75558214026503 13.9378324318118 8.86701869429089
257 82 2 0 6.71558214026503 13.9378324318118 8.86701869429089
258 82 5 0 6.95558214026503 13.0078324318118 8.86701869429089
259 83 5 0 0.14401044507511 10.9356773159839 0.827564117498696
260 83 2 0 1.10401044507511 10.9356773159839 0.827564117498696
261 83 5 0 1.34401044507511 10.0056773159839 0.827564117498696
262 84 5 0 6.90253133347258 4.26054874708876 12.4494639749173
263 84 2 0 7.86253133347258 4.26054874708876 12.4494639749173
264 84 5 0 8.10253133347258 3.33054874708876 12.4494639749173
265 85 5 0 0.518020788878202 10.3891775120888 8.8813732273411
266 85 2 0 1.4780207888782 10.3891775120888 8.8813732273411
267 85 5 0 1.7180207888782 9.45917751208879 8.8813732273411
268 86 5 0 5.88744534689002 14.7931424159929 10.7087096292526
269 86 2 0 6.84744534689002 14.7931424159929 10.7087096292526
270 86 5 0 7.08744534689002 13.8631424159929 10.7087096292526
271 87 5 0 5.25812735592015 15.0127767112013 14.0256402245723
272 87 2 0 6.21812735592015 15.0127767112013 14.0256402245723
273 87 5 0 6.45812735592015 14.0827767112013 14.0256402245723
274 88 5 0 10.4802665188629 4.1667466835957 7.05751187517308
275 88 2 0 11.4402665188629 4.1667466835957 7.05751187517308
276 88 5 0 11.6802665188629 3.2367466835957 7.05751187517308
277 89 5 0 14.0769330358319 14.393593467949 0.402727170148864
278 89 2 0 15.0369330358319 14.393593467949 0.402727170148864
279 89 5 0 15.2769330358319 13.463593467949 0.402727170148864
280 90 5 0 4.70791520361789 2.00650385854766 5.73208515532315
281 90 2 0 5.66791520361789 2.00650385854766 5.73208515532315
282 90 5 0 5.90791520361789 1.07650385854766 5.73208515532315
283 91 5 0 10.1331167416368 13.8176043929439 9.03270812588744
284 91 2 0 11.0931167416368 13.8176043929439 9.03270812588744
285 91 5 0 11.3331167416368 12.8876043929439 9.03270812588744
286 92 5 0 1.09921440758742 14.8190953132603 7.4834051344078
287 92 2 0 2.05921440758742 14.8190953132603 7.4834051344078
288 92 5 0 2.29921440758742 13.8890953132603 7.4834051344078
289 93 5 0 11.0311296481825 6.08269044006243 8.85744353989139
290 93 2 0 11.9911296481825 6.08269044006243 8.85744353989139
291 93 5 0 12.2311296481825 5.15269044006243 8.85744353989139
292 94 5 0 2.82168315650895 6.49413044139743 10.4728856147267
293 94 2 0 3.78168315650895 6.49413044139743 10.4728856147267
294 94 5 0 4.02168315650895 5.56413044139743 10.4728856147267
295 95 5 0 6.63786997131072 10.0768171941768 10.4909701261204
296 95 2 0 7.59786997131072 10.0768171941768 10.4909701261204
297 95 5 0 7.83786997131072 9.14681719417684 10.4909701261204
298 96 5 0 11.9551195604447 14.4462439002842 13.8759240880609
299 96 2 0 12.9151195604447 14.4462439002842 13.8759240880609
300 96 5 0 13.1551195604447 13.5162439002842 13.8759240880609
301 97 5 0 6.51614232614636 5.3832683239039 5.12113202945329
302 97 2 0 7.47614232614636 5.3832683239039 5.12113202945329
303 97 5 0 7.71614232614636 4.4532683239039 5.12113202945329
304 98 5 0 2.10477341126651 4.65059897670522 4.51385743101127
305 98 2 0 3.06477341126651 4.65059897670522 4.51385743101127
306 98 5 0 3.30477341126651 3.72059897670522 4.51385743101127
307 99 5 0 0.598154517794028 7.16386097524315 14.3905104557052
308 99 2 0 1.55815451779403 7.16386097524315 14.3905104557052
309 99 5 0 1.79815451779403 6.23386097524315 14.3905104557052
310 100 5 0 11.4718339084368 5.82984595833346 3.05344932130538
311 100 2 0 12.4318339084368 5.82984595833346 3.05344932130538
312 100 5 0 12.6718339084368 4.89984595833346 3.05344932130538
313 101 5 0 6.1098396456521 4.22236954485066 8.55333913466893
314 101 2 0 7.0698396456521 4.22236954485066 8.55333913466893
315 101 5 0 7.3098396456521 3.29236954485066 8.55333913466893
316 102 5 0 8.95791273607872 5.67074095172808 0.84413715172559
317 102 2 0 9.91791273607872 5.67074095172808 0.84413715172559
318 102 5 0 10.1579127360787 4.74074095172808 0.84413715172559
319 103 5 0 8.50130829188973 6.16379547788762 9.69968705554493
320 103 2 0 9.46130829188973 6.16379547788762 9.69968705554493
321 103 5 0 9.70130829188973 5.23379547788762 9.69968705554493
322 104 5 0 4.41574950629845 6.54046713531949 10.6760937999934
323 104 2 0 5.37574950629845 6.54046713531949 10.6760937999934
324 104 5 0 5.61574950629845 5.61046713531949 10.6760937999934
325 105 5 0 0.0858106829412282 0.514556323587894 13.8408372423146
326 105 2 0 1.04581068294123 0.514556323587894 13.8408372423146
327 105 5 0 1.28581068294123 -0.415443676412106 13.8408372423146
328 106 5 0 5.56505623550154 14.9977825970296 6.21643696445972
329 106 2 0 6.52505623550154 14.9977825970296 6.21643696445972
330 106 5 0 6.76505623550154 14.0677825970296 6.21643696445972
331 107 5 0 12.4839181154687 7.78630811412819 2.35257405554876
332 107 2 0 13.4439181154687 7.78630811412819 2.35257405554876
333 107 5 0 13.6839181154687 6.85630811412819 2.35257405554876
334 108 5 0 11.7391063032858 6.41469048609957 6.1526474962011
335 108 2 0 12.6991063032858 6.41469048609957 6.1526474962011
336 108 5 0 12.9391063032858 5.48469048609957 6.1526474962011
337 109 5 0 10.9012419234216 14.0333035487588 9.96400483651087
338 109 2 0 11.8612419234216 14.0333035487588 9.96400483651087
339 109 5 0 12.1012419234216 13.1033035487589 9.96400483651087
340 110 5 0 8.81373814118095 5.99534214864485 11.4137266343459
341 110 2 0 9.77373814118095 5.99534214864485 11.4137266343459
342 110 5 0 10.0137381411809 5.06534214864485 11.4137266343459
343 111 5 0 1.23185926859267 4.34721485636197 4.13527369732037
344 111 2 0 2.19185926859267 4.34721485636197 4.13527369732037
345 111 5 0 2.43185926859267 3.41721485636197 4.13527369732037
346 112 5 0 1.80401800244115 6.4969030771777 14.7005653276574
347 112 2 0 2.76401800244115 6.4969030771777 14.7005653276574
348 112 5 0 3.00401800244115 5.5669030771777 14.7005653276574
349 113 5 0 7.01757633171044 1.36469255009666 13.1318813504186
350 113 2 0 7.97757633171044 1.36469255009666 13.1318813504186
351 113 5 0 8.21757633171044 0.434692550096661 13.1318813504186
352 114 5 0 3.99385181997903 6.08317575924098 9.58944682264701
353 114 2 0 4.95385181997903 6.08317575924098 9.58944682264701
354 114 5 0 5.19385181997903 5.15317575924098 9.58944682264701
355 115 5 0 4.86968753786758 3.5887202228792 13.7056525144726
356 115 2 0 5.82968753786758 3.5887202228792 13.7056525144726
357 115 5 0 6.06968753786758 2.6587202228792 13.7056525144726
358 116 5 0 13.5925634780154 11.034845508812 3.44174530589953
359 116 2 0 14.5525634780154 11.034845508812 3.44174530589953
360 116 5 0 14.7925634780154 10.104845508812 3.44174530589953
361 117 5 0 7.94182503174059 8.33661929861642 9.07250304124318
362 117 2 0 8.90182503174059 8.33661929861642 9.07250304124318
363 117 5 0 9.14182503174059 7.40661929861642 9.07250304124318
364 118 5 0 8.40987971445545 7.72280036862008 9.58087615203112
365 118 2 0 9.36987971445546 7.72280036862008 9.58087615203112
366 118 5 0 9.60987971445546 6.79280036862008 9.58087615203112
367 119 5 0 13.4499177771807 13.8268120707385 7.14466070872732
368 119 2 0 14.4099177771807 13.8268120707385 7.14466070872732
369 119 5 0 14.6499177771807 12.8968120707385 7.14466070872732
370 120 5 0 4.76553252127022 9.32319348020479 13.1314397288952
371 120 2 0 5.72553252127022 9.32319348020479 13.1314397288952
372 120 5 0 5.96553252127022 8.39319348020479 13.1314397288952
373 121 5 0 2.21256364529952 5.00059767550789 10.3424979338888
374 121 2 0 3.17256364529952 5.00059767550789 10.3424979338888
375 121 5 0 3.41256364529952 4.07059767550789 10.3424979338888
376 122 5 0 14.2265580715332 6.17647535557859 2.04543719999492
377 122 2 0 15.1865580715332 6.17647535557859 2.04543719999492
378 122 5 0 15.4265580715332 5.24647535557859 2.04543719999492
379 123 5 0 4.69016211966053 0.869538000961766 13.3986708673183
380 123 2 0 5.65016211966053 0.869538000961766 13.3986708673183
381 123 5 0 5.89016211966053 -0.0604619990382344 13.3986708673183
382 124 5 0 10.5862816194724 15.2283124478441 14.403211560566
383 124 2 0 11.5462816194724 15.2283124478441 14.403211560566
384 124 5 0 11.7862816194724 14.2983124478441 14.403211560566
385 125 5 0 7.55139181550592 13.4248366630077 6.63138060481288
386 125 2 0 8.51139181550592 13.4248366630077 6.63138060481288
387 125 5 0 8.75139181550592 12.4948366630077 6.63138060481288
388 126 5 0 1.12197906288318 10.1861100345291 4.83700544340536
389 126 2 0 2.08197906288318 10.1861100345291 4.83700544340536
390 126 5 0 2.32197906288318 9.25611003452912 4.83700544340536
391 127 5 0 -0.0658276195451617 6.78919790120795 2.38764361012727
392 127 2 0 0.894172380454838 6.78919790120795 2.38764361012727
393 127 5 0 1.13417238045484 5.85919790120795 2.38764361012727
394 128 5 0 10.3132708794158 1.1610413498152 14.4169090676587
395 128 2 0 11.2732708794158 1.1610413498152 14.4169090676587
396 128 5 0 11.5132708794158 0.231041349815205 14.4169090676587
397 129 5 0 9.30658065757714 11.0241083467286 9.45653797010891
398 129 2 0 10.2665806575771 11.0241083467286 9.45653797010891
399 129 5 0 10.5065806575771 10.0941083467286 9.45653797010891
400 130 5 0 14.2677879058477 1.47016747197136 9.49449821258895
401 130 2 0 15.2277879058477 1.47016747197136 9.49449821258895
402 130 5 0 15.4677879058477 0.540167471971363 9.49449821258895
403 131 5 0 1.64804360174574 1.94203113595955 6.21034271316603
404 131 2 0 2.60804360174574 1.94203113595955 6.21034271316603
405 131 5 0 2.84804360174574 1.01203113595955 6.21034271316603
406 132 5 0 8.20231220263056 4.75118376006372 7.12804903043434
407 132 2 0 9.16231220263056 4.75118376006372 7.12804903043434
408 132 5 0 9.40231220263056 3.82118376006372 7.12804903043434
409 133 5 0 14.1067536994535 12.5860800924152 8.13472063397057
410 133 2 0 15.0667536994535 12.5860800924152 8.13472063397057
411 133 5 0 15.3067536994535 11.6560800924152 8.13472063397057
412 134 5 0 8.40038909853436 7.07890364964493 2.24724267376587
413 134 2 0 9.36038909853436 7.07890364964493 2.24724267376587
414 134 5 0 9.60038909853436 6.14890364964493 2.24724267376587
415 135 5 0 11.357397586545 3.95857468288392 11.065775208408
416 135 2 0 12.317397586545 3.95857468288392 11.065775208408
417 135 5 0 12.557397586545 3.02857468288392 11.065775208408
418 136 5 0 12.7104569056258 10.0082431644574 9.94391652289778
419 136 2 0 13.6704569056258 10.0082431644574 9.94391652289778
420 136 5 0 13.9104569056258 9.07824316445738 9.94391652289778
421 137 5 0 2.31969764965586 8.837898916509 6.44409407512285
422 137 2 0 3.27969764965586 8.837898916509 6.44409407512285
423 137 5 0 3.51969764965586 7.907898916509 6.44409407512285
424 138 5 0 8.74193973650224 0.400720917796716 14.3518404231872
425 138 2 0 9.70193973650225 0.400720917796716 14.3518404231872
426 138 5 0 9.94193973650225 -0.529279082203284 14.3518404231872
427 139 5 0 5.94256085853092 3.9186667724885 8.34502514451742
428 139 2 0 6.90256085853092 3.9186667724885 8.34502514451742
429 139 5 0 7.14256085853092 2.9886667724885 8.34502514451742
430 140 5 0 7.52904998182319 0.790799342039973 4.23722049454227
431 140 2 0 8.48904998182319 0.790799342039973 4.23722049454227
432 140 5 0 8.72904998182319 -0.139200657960028 4.23722049454227
433 141 5 0 0.742002955377102 12.2160556439217 10.3490719792899
434 141 2 0 1.7020029553771 12.2160556439217 10.3490719792899
435 141 5 0 1.9420029553771 11.2860556439217 10.3490719792899
436 142 5 0 6.78490260310471 7.32167245511897 10.4404487775173
437 142 2 0 7.74490260310471 7.32167245511897 10.4404487775173
438 142 5 0 7.98490260310471 6.39167245511897 10.4404487775173
439 143 5 0 13.175394889405 9.86502328230068 12.0354418375064
440 143 2 0 14.135394889405 9.86502328230068 12.0354418375064
441 143 5 0 14.375394889405 8.93502328230068 12.0354418375064
442 144 5 0 4.8283881093096 9.557937053442 4.06801949604414
443 144 2 0 5.7883881093096 9.557937053442 4.06801949604414
444 144 5 0 6.0283881093096 8.627937053442 4.06801949604414
445 145 5 0 9.43868659713305 7.90420852991752 13.5158908786252
446 145 2 0 10.3986865971331 7.90420852991752 13.5158908786252
447 145 5 0 10.6386865971331 6.97420852991752 13.5158908786252
448 146 5 0 8.65888374784961 12.7673684448842 10.5580127751455
449 146 2 0 9.61888374784961 12.7673684448842 10.5580127751455
450 146 5 0 9.85888374784961 11.8373684448842 10.5580127751455
451 147 5 0 8.60565187686123 1.38944026589394 14.0228004462551
452 147 2 0 9.56565187686123 1.38944026589394 14.0228004462551
453 147 5 0 9.80565187686123 0.459440265893936 14.0228004462551
454 148 5 0 7.33023450753652 6.88676085480489 8.99975323467515
455 148 2 0 8.29023450753652 6.88676085480489 8.99975323467515
456 148 5 0 8.53023450753652 5.95676085480489 8.99975323467515
457 149 5 0 1.96274741596542 10.7359808477946 14.966276086634
458 149 2 0 2.92274741596542 10.7359808477946 14.966276086634
459 149 5 0 3.16274741596542 9.80598084779456 14.966276086634
460 150 5 0 13.1376538616326 6.85192403424531 1.09756893245503
461 150 2 0 14.0976538616326 6.85192403424531 1.09756893245503
462 150 5 0 14.3376538616326 5.92192403424531 1.09756893245503
463 151 5 0 6.17677643124014 10.9680145063344 10.0113178580068
464 151 2 0 7.13677643124014 10.9680145063344 10.0113178580068
465 151 5 0 7.37677643124014 10.0380145063344 10.0113178580068
466 152 5 0 8.78754666700959 13.2811522068828 6.79558444884606
467 152 2 0 9.74754666700959 13.2811522068828 6.79558444884606
468 152 5 0 9.98754666700959 12.3511522068828 6.79558444884606
469 153 5 0 5.17793014805764 5.12920498772524 4.52540541649796
470 153 2 0 6.13793014805764 5.12920498772524 4.52540541649796
471 153 5 0 6.37793014805764 4.19920498772524 4.52540541649796
472 154 5 0 0.577432207502425 14.973462190656 9.73520895349793
473 154 2 0 1.53743220750242 14.973462190656 9.73520895349793
474 154 5 0 1.77743220750242 14.043462190656 9.73520895349793
475 155 5 0 9.63083144204691 1.83855848660693 13.9905221771915
476 155 2 0 10.5908314420469 1.83855848660693 13.9905221771915