LAMMPS (29 Sep 2021 - Update 1)
Reading data file ...
  triclinic box = (0.0000000 0.0000000 0.0000000) to (15.000000 15.000000 15.000000) with tilt (0.0000000 0.0000000 0.0000000)
  2 by 4 by 4 MPI processor grid
  reading atoms ...
  1515 atoms
  scanning bonds ...
  3 = max bonds/atom
  scanning angles ...
  6 = max angles/atom
  scanning dihedrals ...
  8 = max dihedrals/atom
  scanning impropers ...
  2 = max impropers/atom
  reading bonds ...
  1016 bonds
  reading angles ...
  526 angles
  reading dihedrals ...
  34 dihedrals
  reading impropers ...
  6 impropers
Finding 1-2 1-3 1-4 neighbors ...
  special bond factors lj:    0        0        1       
  special bond factors coul:  0        0        1       
     4 = max # of 1-2 neighbors
     5 = max # of 1-3 neighbors
     8 = max # of special neighbors
  special bonds CPU = 0.002 seconds
  read_data CPU = 0.017 seconds
WARNING: Using 'neigh_modify every 1 delay 0 check yes' setting during minimization (../min.cpp:188)
Neighbor list info ...
  update every 1 steps, delay 0 steps, check yes
  max neighbors/atom: 10000, page size: 100000
  master list distance cutoff = 13
  ghost atom cutoff = 13
  binsize = 6.5, bins = 3 3 3
  3 neighbor lists, perpetual/occasional/extra = 3 0 0
  (1) pair hbond/dreiding/lj, perpetual, skip from (3)
      attributes: full, newton on
      pair build: skip
      stencil: none
      bin: none
  (2) pair lj/cut, perpetual, half/full from (3)
      attributes: half, newton on
      pair build: halffull/newton
      stencil: none
      bin: none
  (3) neighbor class addition, perpetual
      attributes: full, newton on
      pair build: full/bin
      stencil: full/bin/3d
      bin: standard
Setting up cg style minimization ...
  Unit style    : real
  Current step  : 0
WARNING: Energy due to 1 extra global DOFs will be included in minimizer energies
Per MPI rank memory allocation (min/avg/max) = 14.21 | 14.57 | 15.16 Mbytes
Step Temp E_pair E_mol TotEng Press Volume 
       0            0 4.5408813e+21    222.90104 4.5408813e+21 3.6902048e+23         3375 
    5585            0   -1084.6468    34.676232   -1049.9705    106.82255    37001.621 
Loop time of 4.96063 on 32 procs for 5585 steps with 1515 atoms

100.0% CPU use with 32 MPI tasks x no OpenMP threads

Minimization stats:
  Stopping criterion = energy tolerance
  Energy initial, next-to-last, final = 
    4.54088126133005e+21  -1049.40077257861  -1049.48011608755
  Force two-norm initial, final = 2.1506022e+24 106.50602
  Force max component initial, final = 1.4000609e+24 77.116465
  Final line search alpha, max atom move = 1.4741679e-05 0.0011368262
  Iterations, force evaluations = 5585 5606

MPI task timing breakdown:
Section |  min time  |  avg time  |  max time  |%varavg| %total
---------------------------------------------------------------
Pair    | 1.5962     | 2.6983     | 4.0753     |  37.9 | 54.40
Bond    | 0.007684   | 0.012138   | 0.029873   |   3.6 |  0.24
Neigh   | 0.099984   | 0.10024    | 0.10044    |   0.0 |  2.02
Comm    | 0.41293    | 1.7872     | 2.8988     |  46.6 | 36.03
Output  | 0          | 0          | 0          |   0.0 |  0.00
Modify  | 0          | 0          | 0          |   0.0 |  0.00
Other   |            | 0.3628     |            |       |  7.31

Nlocal:        47.3438 ave          69 max          29 min
Histogram: 4 1 1 5 7 4 4 3 2 1
Nghost:        1935.41 ave        1963 max        1901 min
Histogram: 3 1 2 1 5 7 4 3 2 4
Neighs:        4925.59 ave        7530 max        2721 min
Histogram: 4 2 2 3 7 5 4 2 2 1

Total # of neighbors = 157619
Ave neighs/atom = 104.03894
Ave special neighs/atom = 2.0356436
Neighbor list builds = 98
Dangerous builds = 0
1500 atoms in group WAT
15 atoms in group MOL
Neighbor list info ...
  update every 2 steps, delay 10 steps, check yes
  max neighbors/atom: 10000, page size: 100000
  master list distance cutoff = 13
  ghost atom cutoff = 13
  binsize = 6.5, bins = 6 6 6
  4 neighbor lists, perpetual/occasional/extra = 3 1 0
  (1) pair hbond/dreiding/lj, perpetual, skip from (4)
      attributes: full, newton on
      pair build: skip
      stencil: none
      bin: none
  (2) pair lj/cut, perpetual, half/full from (4)
      attributes: half, newton on
      pair build: halffull/newton
      stencil: none
      bin: none
  (3) compute group/group, occasional, copy from (2)
      attributes: half, newton on
      pair build: copy
      stencil: none
      bin: none
  (4) neighbor class addition, perpetual
      attributes: full, newton on
      pair build: full/bin
      stencil: full/bin/3d
      bin: standard
Setting up Verlet run ...
  Unit style    : real
  Current step  : 5585
  Time step     : 1
Per MPI rank memory allocation (min/avg/max) = 13.06 | 13.14 | 13.63 Mbytes
Step Temp E_pair E_mol TotEng Press Volume 
    5585          300   -1084.6468    34.676232     303.9134    1779.4281    37001.621 
    5600    318.71386   -981.87941    413.55685    870.01599    1042.8996    37001.621 
    5700    293.32638   -1119.2431    162.39388    366.91706   -80.882409    37001.621 
    5800    300.03805   -1170.8399     181.3326    364.54838    224.29111    37001.621 
    5900    296.45123   -1150.3898    221.65126    409.12996    289.34772    37001.621 
    6000    287.92722   -1073.7542    194.45414    420.10009    854.24669    37001.621 
    6100    299.50542   -1108.0598    196.18581    439.77787    549.31116    37001.621 
    6200    303.79625   -1080.8375    210.21161    500.39027    985.21279    37001.621 
    6300    288.85766   -1135.6542    204.07643    372.02138    283.09749    37001.621 
    6400    300.76614   -1103.0644    215.04535    469.32242    749.38038    37001.621 
    6500    301.74829   -1119.2515    206.94462    449.46702    592.47205    37001.621 
    6600    304.59699    -1090.588    218.19157    502.23352    743.06065    37001.621 
    6700     302.8198   -1073.3816    211.92138    505.14938    237.21166    37001.621 
    6800     291.7932   -1064.0428    209.37658    462.18089    349.15289    37001.621 
    6900    303.01212   -1068.1599    227.13288    526.45045    253.61542    37001.621 
    7000    299.66631   -1073.3095    226.75178    505.82031   -243.89209    37001.621 
    7100    291.40803   -1074.3612    224.83048    465.57807    391.09137    37001.621 
    7200    297.14835   -1096.7956    214.76047    458.97943    441.86931    37001.621 
    7300    300.33445   -1093.6415    221.60552    483.35728    314.68859    37001.621 
    7400    296.67586   -1055.1737    225.15096    508.85958      256.824    37001.621 
    7500    304.62219   -1093.1593    212.51592    494.10027     342.5632    37001.621 
    7600    294.63154   -1103.9591    235.12278    460.82002    920.86151    37001.621 
    7700    301.29599   -1105.8396     222.2056    476.09866    323.87694    37001.621 
    7800    299.14761   -1131.7536    231.60313    449.88669    564.49556    37001.621 
    7900    295.12637   -1111.1727    247.23703    467.95382    802.36753    37001.621 
    8000    299.18355   -1165.7953    220.09702    404.50102    787.73551    37001.621 
    8100    300.86502   -1115.1997    217.44472     460.0327      489.556    37001.621 
    8200    293.96128    -1137.021    236.93044     426.5409    148.46885    37001.621 
    8300    296.82855   -1113.1315    236.88626    463.32611    287.37388    37001.621 
    8400    293.55594   -1130.3479    232.44786    426.90218    337.54198    37001.621 
    8500    302.28758   -1123.4994    231.05462    471.76291     261.8478    37001.621 
    8600     298.9344   -1117.4946    238.34308    469.92337    -13.24763    37001.621 
    8700    296.84429   -1104.3929     231.1434    466.39285    312.99239    37001.621 
    8800    301.70524   -1100.9177    257.59727    518.25914    65.830562    37001.621 
    8900    295.72863   -1128.7827    244.84208    450.66687    300.86108    37001.621 
    9000    290.85942   -1106.3248    234.82742    441.13562    212.11686    37001.621 
    9100    296.57792   -1145.1283    249.69053    443.00249    739.61088    37001.621 
    9200    304.27337   -1079.2075    254.87024    548.83215    135.89821    37001.621 
    9300    289.73347   -1134.9046    246.19935    418.84642    310.56063    37001.621 
    9400    297.27901   -1126.7323    235.35908    450.23103    332.32991    37001.621 
    9500    299.33867   -1119.4934    238.89844    470.30445     435.6732    37001.621 
    9600    304.91581   -1104.9933    241.25141    512.32688    369.79538    37001.621 
    9700    296.23071   -1091.5938    244.89102    490.17058    410.47299    37001.621 
    9800    302.92883    -1080.712    242.11222    528.50183    188.62725    37001.621 
    9900    298.52692   -1107.6537    260.09481    499.67711    309.93964    37001.621 
   10000    294.74572   -1113.9442    246.44819     462.6756    195.31538    37001.621 
   10100    294.50651   -1129.0805    262.52744    462.53901    330.78428    37001.621 
   10200    307.11612    -1116.242    261.08479    530.84139    374.84235    37001.621 
   10300    299.39998   -1092.9309    238.14996    496.39517    40.409013    37001.621 
   10400    299.07244    -1096.168    247.80198    501.33192    644.21619    37001.621 
   10500    308.95656   -1129.3688    258.93097    523.86657    375.49905    37001.621 
   10600     298.9534   -1128.9766     242.5256    462.70966   -12.977088    37001.621 
   10700     292.9436   -1100.4848     244.8908    466.44479    603.17074    37001.621 
   10800    299.48986   -1157.7922    253.57314     447.3626    421.81037    37001.621 
   10900     290.7405   -1124.9764    255.91582    443.03572    464.62848    37001.621 
   11000    309.94674   -1164.4506    250.41132    484.73375    494.29158    37001.621 
   11100     284.0129   -1178.4715    261.88529    365.14876    482.71548    37001.621 
   11200    315.23724   -1184.9242    255.43627    493.16085    953.13848    37001.621 
   11300    328.18643   -1130.4184    283.46333     634.1327    516.89285    37001.621 
   11400    288.91406   -1097.3141    264.47004    471.00959    111.97318    37001.621 
   11500    302.37792    -1142.348    262.72038    484.98779    191.11767    37001.621 
   11600    306.04591   -1124.9001      260.044    516.31264    468.73156    37001.621 
   11700    305.79157   -1169.0446    252.67454    463.65092   -292.65717    37001.621 
   11800     308.4632   -1146.0921    264.17173    510.15748    485.72107    37001.621 
   11900    299.93914   -1127.5908    262.89393     488.9124    476.31858    37001.621 
   12000    310.00672   -1171.0434    264.57119    492.57149      385.591    37001.621 
   12100    307.30636   -1169.7577    264.22438    481.32381    422.55293    37001.621 
   12200    302.91201   -1140.8005    258.81092    485.03609    232.60229    37001.621 
   12300    303.97425   -1155.8004    256.48934    472.50845    231.80785    37001.621 
   12400    291.70951   -1141.4779    268.82509     443.8166    616.65755    37001.621 
   12500    312.93418   -1206.7653    266.77294    472.26281    380.54497    37001.621 
   12600    290.02524    -1193.155    287.51461    403.22804    47.389847    37001.621 
   12700    286.79819   -1149.7844    265.26146    409.78199    19.967408    37001.621 
   12800    305.71571   -1151.5751    280.17214    508.27564   -413.45878    37001.621 
   12900    295.96708   -1128.2446    272.75686    480.19581    28.402101    37001.621 
   13000    300.90029   -1139.0544     284.3439    503.23643     405.6134    37001.621 
   13100    306.19548   -1130.3822     283.0263    534.48791      200.158    37001.621 
   13200    307.29936   -1135.2126    286.30205    537.91498    7.0601186    37001.621 
   13300    292.48719   -1126.1734    274.15172    467.95737    -158.9877    37001.621 
   13400    295.22946   -1131.0753    290.56766    491.84705    134.99858    37001.621 
   13500    308.41181   -1147.8991    280.29319    524.24001    85.071869    37001.621 
   13600    297.44896   -1198.9834    264.14484     407.5327    134.09722    37001.621 
   13700    312.26214   -1185.8462    281.86604    505.24209    329.71173    37001.621 
   13800    296.05339   -1157.9179    298.63955    476.79476    558.17096    37001.621 
   13900     302.5825   -1133.2355    286.63185    518.93501    602.59742    37001.621 
   14000    297.15679   -1164.1338    271.87901    448.79786    759.64287    37001.621 
   14100    298.59588   -1142.5376    294.81426    499.82386    605.99712    37001.621 
   14200    300.34589   -1150.3547     288.8194    493.90961    369.86098    37001.621 
   14300     294.6313   -1144.9133    296.44214    481.18413    501.99598    37001.621 
   14400    294.22439   -1151.4219    281.03665    457.43363    147.27815    37001.621 
   14500    298.18082   -1125.1149    299.01661    519.57575    322.90549    37001.621 
   14600    300.69692   -1103.9926    282.71118    535.74763    209.00776    37001.621 
   14700    307.43151   -1168.5843     298.8312    517.66885   -26.187081    37001.621 
   14800    300.97744   -1166.7845    285.56958    477.08018    536.76382    37001.621 
   14900    304.24907   -1188.7489    289.67923    473.99011     559.9009    37001.621 
   15000    300.52273   -1162.6912    301.19536    494.74712     186.7933    37001.621 
   15100    306.05003   -1186.7038     299.3746    493.85819    21.546397    37001.621 
   15200     309.4566   -1132.7719    295.50583    559.29501    695.15846    37001.621 
   15300    305.51555   -1204.6582    292.14912    466.26619    487.71327    37001.621 
   15400    290.02694   -1157.2057    291.15146    442.82178    800.22881    37001.621 
   15500    293.53689   -1206.5307    295.33781    413.52338    322.83304    37001.621 
   15600    295.63216   -1117.0458    290.43512    507.56142    224.79006    37001.621 
   15700    299.01595   -1153.6334    314.53945    510.34899    801.00362    37001.621 
   15800    297.69341   -1163.5448    310.87957    490.80913    152.17746    37001.621 
   15900    292.06902    -1186.783    304.56963     435.8785    227.10044    37001.621 
   16000    306.59939   -1180.4084    304.44606    507.70425    341.64008    37001.621 
   16100     305.5354   -1169.2399    310.64068    520.26567   -162.09932    37001.621 
   16200    292.64772   -1185.7746    306.06317    440.99207   -141.99505    37001.621 
   16300    302.80704   -1217.4314    299.30417     448.4247    769.29222    37001.621 
   16400     302.8461   -1185.7309    293.46613    474.46346    775.63637    37001.621 
   16500    299.23287   -1201.7887    296.99537    445.62853    661.68425    37001.621 
   16600    293.31186    -1202.512    281.49761    402.68637    602.43764    37001.621 
   16700    303.57505   -1169.5233    324.16363    524.65826    509.03667    37001.621 
   16800     296.7759   -1217.2986    295.93368    417.96881    416.66914    37001.621 
   16900    298.17669   -1180.9211    302.51222    467.24648    267.82096    37001.621 
   17000    311.37178   -1166.8796    323.74873    562.07328    68.949249    37001.621 
   17100    301.47424   -1181.2159    293.45619     472.7774    477.38209    37001.621 
   17200    308.36583   -1163.3438    319.07465    547.36928    562.53304    37001.621 
   17300     306.9658   -1226.3039    302.56751    461.58376    175.50091    37001.621 
   17400    311.85054   -1206.3219    297.73861     498.7815    286.21544    37001.621 
   17500    292.76862   -1199.6867    311.96682    433.52922    -318.9198    37001.621 
   17600     309.3469   -1168.3082    301.82509    529.58287   -425.70344    37001.621 
   17700    307.91484   -1185.5382     296.0172    500.08219   -352.63313    37001.621 
   17800    290.71626   -1149.3734     320.8329    483.44635     199.1369    37001.621 
   17900    302.22739   -1186.2463    311.78919    489.47887    240.41398    37001.621 
   18000    307.17661   -1191.5737    324.69848    519.39636   -3.2970442    37001.621 
   18100    296.90647   -1167.2302    325.30508    497.99786    148.18088    37001.621 
   18200    299.55425   -1164.8292    312.15084    499.19396    402.29573    37001.621 
   18300    302.15551   -1176.2807    318.17895    505.50991    71.497629    37001.621 
   18400    310.07471   -1204.9127    320.34156     514.7794    363.90328    37001.621 
   18500    305.49553    -1175.686    320.91381    523.91274    171.64579    37001.621 
   18600    297.12413   -1176.0022    306.94158    471.84469    721.67798    37001.621 
   18700    307.34573   -1208.8225     336.3252     514.5375    157.22686    37001.621 
   18800     312.0584   -1144.1143    323.32894    587.51747    268.15031    37001.621 
   18900     298.4046   -1204.4938    318.47255    460.66275    358.32329    37001.621 
   19000    300.10691   -1205.9639    324.79042     473.1929    57.450934    37001.621 
   19100    297.89517   -1200.8633    325.92261    469.44425   -144.31554    37001.621 
   19200    299.74007   -1174.3885     329.9215    508.24385     474.9773    37001.621 
   19300    300.75561   -1194.8404    331.29489    493.74841    133.61274    37001.621 
   19400    301.08381   -1179.0347     325.1654    504.90578      335.644    37001.621 
   19500    301.79627   -1201.0881    318.65397    479.55627   -56.291502    37001.621 
   19600    306.82554   -1185.7231    336.31904     535.2832   -52.130231    37001.621 
   19700    306.49246   -1182.3108    323.76668    524.63991    19.748098    37001.621 
   19800    308.37002   -1172.9737    348.11428    566.79796    19.819634    37001.621 
   19900    297.94957   -1191.8811    320.07179    472.82112    314.52632    37001.621 
   20000    297.86082    -1202.618    315.76838    457.38027    534.33081    37001.621 
   20100      295.181    -1159.486    337.00563    509.65565    406.38043    37001.621 
   20200    302.88044   -1208.4996    321.56551    479.94912   0.35745463    37001.621 
   20300    298.82651   -1214.4095    329.77428    463.95277    158.65041    37001.621 
   20400    305.42224   -1185.8996    333.72472    526.17935    348.79363    37001.621 
   20500    296.09412   -1182.5091    347.17696    500.92473    229.26746    37001.621 
   20600    305.76129   -1195.0765    351.14858    535.95637    400.33426    37001.621 
   20700    295.26856   -1194.1211    316.37539    454.78552   -43.660585    37001.621 
   20800    311.02196   -1170.9553    343.52529    576.19547    360.03353    37001.621 
   20900    290.30962    -1214.854    350.34695    445.64465    6.0021319    37001.621 
   21000    290.33357   -1172.8978    338.03349    475.39549    140.28971    37001.621 
   21100    291.60423   -1159.3754    343.26847    499.88735    164.85101    37001.621 
   21200    302.30492   -1180.0492    325.25472    509.49143    592.00366    37001.621 
   21300    311.44661    -1194.083    359.47418    570.93303    625.55566    37001.621 
   21400    285.59973   -1238.8269    342.83538    392.90472     234.2768    37001.621 
   21500    300.81186   -1194.5675    346.50322    509.48357    211.12685    37001.621 
   21600     295.1717   -1169.0729    346.47608    509.49721    333.54423    37001.621 
   21700    307.09086    -1230.919    344.72682    499.69247    610.27592    37001.621 
   21800    291.42702   -1208.4101    344.68758    451.47201    426.26802    37001.621 
   21900     296.3598    -1235.024    344.24013    446.67204    439.31433    37001.621 
   22000    300.72904   -1183.9814     358.8497    532.04238    505.16605    37001.621 
   22100    308.97927   -1184.7505    350.99431    560.65069    494.73874    37001.621 
   22200    296.47287   -1209.3052    345.96545    474.62648    1043.7948    37001.621 
   22300    295.57706   -1177.2415    359.60141    516.28335    326.47392    37001.621 
   22400    311.78909   -1189.1389    341.33261    559.28115      46.6336    37001.621 
   22500    304.06568   -1231.8151    314.09676    454.51382   -124.46218    37001.621 
   22600    287.30051   -1241.9409    342.28485    396.91582    480.98738    37001.621 
   22700    293.23361   -1252.9542    333.17266    403.56602    277.09359    37001.621 
   22800    304.83455   -1328.5731    347.31558    394.44445    405.42919    37001.621 
   22900    307.39411   -1270.4051    335.07167    451.91976    92.005392    37001.621 
   23000     294.6737   -1227.3841    331.72208    434.18459    137.79576    37001.621 
   23100    303.66859   -1273.2103    325.11169    422.34141   -186.18198    37001.621 
   23200    302.32571   -1225.1467    325.38488    464.61788   -160.87093    37001.621 
   23300    298.68282   -1247.1382     334.5637    435.36506   -784.67855    37001.621 
   23400    297.07806   -1253.5816    330.93658    418.05235   -66.453566    37001.621 
   23500    288.87527   -1262.4873    335.98561    377.17692   -352.90305    37001.621 
   23600    299.56482    -1279.462    352.85685    425.31478    9.7132431    37001.621 
   23700    301.17835   -1263.4873    337.87407    433.58858    834.92331    37001.621 
   23800    306.80856   -1257.5824    337.00974    464.03798    372.47527    37001.621 
   23900    303.71262   -1236.1686    338.62073    473.09084     437.4235    37001.621 
   24000    301.56777   -1239.0695    349.33141    471.22112    611.49436    37001.621 
   24100    296.01434   -1265.7399    324.22195    394.37891    566.30749    37001.621 
   24200    298.93411   -1277.6478    327.28764    398.71345    57.756831    37001.621 
   24300    305.31924   -1266.6677    339.43725    450.65895    26.953731    37001.621 
   24400    312.08723   -1269.0893     337.5521    476.89571    541.93218    37001.621 
   24500    309.72199   -1254.0699    334.70421    478.39309    922.84876    37001.621 
   24600    294.92762   -1263.3488    356.56234    424.20613    965.95005    37001.621 
   24700    307.51578   -1241.8674     348.8083    494.74307    1053.7293    37001.621 
   24800    301.44351   -1215.4005     339.0746    484.07252    1239.2393    37001.621 
   24900    293.89238   -1290.2404    334.78133    370.86147    499.40393    37001.621 
   25000    306.11264   -1247.0232    351.22049    485.66725    727.57367    37001.621 
   25100    300.08838   -1196.7226    352.72608    510.28626    165.83897    37001.621 
   25200    295.73976   -1222.3702    344.72294    457.01043    392.56186    37001.621 
   25300    298.74923   -1275.4771    330.36147    403.12367    66.826995    37001.621 
   25400    304.76073   -1202.3732    331.95233    504.94801    89.854719    37001.621 
   25500    301.45103     -1223.46    335.09178     472.0641    356.68234    37001.621 
   25600    291.73712   -1232.8697    359.79342    443.51777    465.77342    37001.621 
   25700    300.65499   -1211.8735    350.57033    495.53669    117.71181    37001.621 
   25800    308.67212   -1200.2449    338.00491    530.78071    242.92795    37001.621 
   25900    300.25818    -1225.933    350.17593    479.29204    20.943023    37001.621 
   26000    307.23749    -1216.951    366.93384    536.52922    259.00446    37001.621 
   26100    297.11859   -1222.4402    346.87194    465.31198   -110.72468    37001.621 
   26200    303.80967   -1229.9202    346.27194    487.42853    122.68985    37001.621 
   26300    295.55199   -1220.8757    354.62703    467.56167   -59.904903    37001.621 
   26400    288.00157   -1214.9318    348.47561    433.27945    351.60916    37001.621 
   26500    304.42111   -1231.1414     349.9104     492.6052    129.57546    37001.621 
   26600    311.78058    -1223.656    359.02176    542.41484   -87.050413    37001.621 
   26700    301.28578   -1230.1541    345.08852    474.62102    119.02027    37001.621 
   26800    303.90583   -1243.8476     372.4624     500.1255    91.947481    37001.621 
   26900    293.51443   -1252.6856    373.44725    445.37659    85.084642    37001.621 
   27000    307.28413    -1246.967    354.36576    494.15558    502.83779    37001.621 
   27100    297.20871   -1234.5876    354.78416    461.48359   -219.95941    37001.621 
   27200    304.24207   -1254.4056    340.14781    458.77037    436.35063    37001.621 
   27300    304.48011   -1248.1723    361.52062     487.4507    85.310299    37001.621 
   27400    299.35177   -1206.8041     389.4103    533.56469    323.39039    37001.621 
   27500     307.5843   -1230.8577      344.205    501.45877    454.86819    37001.621 
   27600    292.65953   -1265.9454      350.567     405.3784   -241.92075    37001.621 
   27700    309.44791   -1212.4283    360.54946    544.64302    491.37773    37001.621 
   27800    298.55152   -1204.7538    368.45093    511.04414    538.74361    37001.621 
   27900    299.23394   -1279.6516    373.03869    443.81378    171.34916    37001.621 
   28000      291.029   -1220.6456    373.30742    466.06013    83.197118    37001.621 
   28100    299.86579   -1251.9657    350.11603    451.42858   -162.61618    37001.621 
   28200    299.47865   -1289.4979    376.43964     438.4728   -57.606183    37001.621 
   28300    306.56104   -1309.7801    338.40645    412.11991    119.81125    37001.621 
   28400    317.20726   -1287.1451    363.00042    507.39469    740.39398    37001.621 
   28500    303.01053   -1272.9056    369.59816    464.16282    544.77617    37001.621 
   28600    314.32093   -1280.9631     351.0161    488.56653    763.99111    37001.621 
   28700    298.56054   -1267.2533    346.88383    427.01823    104.01375    37001.621 
   28800    300.49807   -1269.7084    375.21379    461.63712    386.70399    37001.621 
   28900    301.26926   -1248.7614    363.19585     474.0465    718.23843    37001.621 
   29000    302.09125   -1269.6668    365.77233     459.4272    264.10784    37001.621 
   29100      289.844   -1245.5126    356.95368    419.49153    926.99387    37001.621 
   29200    293.70165   -1240.4195    340.67966    425.72002    742.24185    37001.621 
   29300    301.80272   -1251.6827    386.25948    496.59629   -133.61533    37001.621 
   29400    302.14584   -1261.1328    368.34721    470.78238 -0.087516677    37001.621 
   29500    297.06152   -1217.4576    363.68745    486.85261   -270.58001    37001.621 
   29600    302.99569   -1234.2722     380.2159    513.34704   -115.65875    37001.621 
   29700    300.24001   -1211.0426    352.65276    496.57722    250.64242    37001.621 
   29800    294.86328   -1207.8563    358.62458    481.47041    122.48654    37001.621 
   29900    293.43961    -1253.268    363.55286    434.56212     63.07348    37001.621 
   30000    299.69553   -1222.8736    340.62608    470.26239     502.3788    37001.621 
   30100    304.54924   -1272.1553    362.46094    464.72009    504.45264    37001.621 
   30200    305.22015   -1278.6984    371.69185    470.43564     462.2736    37001.621 
   30300    300.37187   -1234.3998    373.97458    495.13697    289.90537    37001.621 
   30400    297.89705    -1236.526    370.86278    478.73024   -230.67197    37001.621 
   30500    301.35183   -1223.1174    388.76619     525.6335   -288.35643    37001.621 
   30600    292.07747   -1224.1524    380.48094     474.4585   -233.45238    37001.621 
   30700    305.88114   -1203.7509    372.30718    548.98145    238.03102    37001.621 
   30800    301.52974   -1258.2619    375.00035    477.52599   -170.04924    37001.621 
   30900    293.24286   -1252.2974    380.44595     451.5379    187.60172    37001.621 
   31000    303.99446   -1270.5168    372.21886    473.61279    59.746996    37001.621 
   31100    309.02814   -1262.9021    368.28045    500.00575   -64.673016    37001.621 
   31200    297.50214   -1244.1758    381.76047    480.19583    428.10805    37001.621 
   31300    292.96391   -1259.9281    393.20865      455.411   -488.93941    37001.621 
   31400    302.59948   -1265.4798    377.21674    477.35218    229.97133    37001.621 
   31500    301.31075    -1260.668    371.76484    470.89608    479.87298    37001.621 
   31600    294.34358   -1276.3945    365.88929    417.85161   -270.04563    37001.621 
   31700    311.07009   -1302.0405    356.87158    458.67374   -6.0447943    37001.621 
   31800    299.56193   -1309.7533    351.75464    393.90833   -27.878773    37001.621 
   31900    302.01791   -1267.2828    371.39067    467.09856    249.96588    37001.621 
   32000    306.09945   -1295.8333    372.45418    458.03132    405.13083    37001.621 
   32100    308.55947   -1250.8294    368.09835    509.78129    130.29128    37001.621 
   32200    295.54295   -1265.4235    368.48536    436.83131   -602.86455    37001.621 
   32300    309.20643   -1263.4512    370.74595    502.72682    78.904204    37001.621 
   32400    297.13627   -1307.1005     371.1268    404.98634     25.34049    37001.621 
   32500    299.45526   -1248.1114    380.89063    484.20478   -1.2628576    37001.621 
   32600    301.69688   -1278.1702    377.47452     460.8462    42.008969    37001.621 
   32700    286.63663   -1308.3886    379.42344    364.61054    108.42322    37001.621 
   32800    297.38082    -1277.753    406.14811    470.45885    513.70064    37001.621 
   32900    300.87531   -1242.8058    386.06131    501.08968    512.62534    37001.621 
   33000    304.26368   -1237.9698    382.44811    517.60401     398.6032    37001.621 
   33100    301.53128   -1249.4742    374.78202    486.10229     474.7674    37001.621 
   33200    309.53134    -1273.012    361.80701    485.69331    596.20504    37001.621 
   33300    291.15418    -1271.247    397.74275    440.45891    95.441973    37001.621 
   33400    304.81623   -1303.8916    377.00405    448.73178    40.344825    37001.621 
   33500     300.0293   -1288.7116    383.16416    448.46869    170.66046    37001.621 
   33600    299.72793   -1274.7996    416.21379    494.07029   -373.78071    37001.621 
   33700    307.08281   -1270.2807    366.08816    481.65569    634.81041    37001.621 
   33800    299.73911   -1291.1802    379.99278    441.51915    864.54312    37001.621 
   33900    301.46363   -1266.1615     405.9374    500.26514    847.92842    37001.621 
   34000     300.5123   -1258.1545     363.6192    461.66057    504.47182    37001.621 
   34100    297.63187   -1297.9485    370.67083    415.91902    83.104738    37001.621 
   34200    298.47106   -1306.0554    365.39148    406.31996   -331.06256    37001.621 
   34300    293.61202   -1292.3167    375.91581    408.65446   -71.822555    37001.621 
   34400    304.40806   -1307.0195    368.46557    435.22335    229.98727    37001.621 
   34500    301.40352   -1286.0625    396.82224     470.9777   -6.2047223    37001.621 
   34600    297.52912   -1265.0061    390.68966    468.41657    209.93617    37001.621 
   34700    296.99144   -1244.3055    381.85169    477.85268    445.81406    37001.621 
   34800    303.05486   -1280.1432    393.49843     481.0256    8.5859366    37001.621 
   34900    308.50975   -1273.4006    379.59475    498.48211    85.500311    37001.621 
   35000     302.6523   -1299.4187    395.49049     461.9254   -235.16362    37001.621 
   35100    303.19804   -1314.4717    381.02096     434.8658    144.70383    37001.621 
   35200    295.30685   -1293.9404     372.8478    411.61143    258.28689    37001.621 
   35300    309.30353   -1290.5275    391.05257    496.39535   -66.652157    37001.621 
   35400    297.02897   -1237.5339    383.36637    486.30835    290.20158    37001.621 
   35500    310.57189   -1282.8015    391.45303    510.24586    732.74401    37001.621 
   35600    298.87525   -1241.7085    411.69163    518.79116    855.73781    37001.621 
   35700    301.97648    -1285.109    405.49321    483.18792    604.22081    37001.621 
   35800     292.8365   -1298.9036    404.19797    426.84984    494.85235    37001.621 
   35900    308.73855   -1256.1048    403.52767    540.74339    539.77832    37001.621 
   36000    305.91205   -1277.7447    377.66498    480.48499    157.82472    37001.621 
   36100     297.8786   -1252.7073    381.42403    473.02687    57.984108    37001.621 
   36200    297.19453   -1285.2173    390.14725    446.15297   -89.652748    37001.621 
   36300    308.86333   -1249.9753    386.00933    529.91765    310.88117    37001.621 
   36400    299.23907   -1250.5298    399.21571     499.1358    271.43687    37001.621 
   36500    294.99514   -1257.8654    409.43722    482.86904    671.93114    37001.621 
   36600    307.84825   -1229.7535    402.35055    561.89975    813.34962    37001.621 
   36700    306.57044   -1264.4141    404.19901    523.32083    697.12222    37001.621 
   36800    299.49017   -1280.7138    381.48531    452.35461    670.92591    37001.621 
   36900      289.755    -1268.383    398.17066    437.43645    89.736872    37001.621 
   37000    302.89747   -1269.9935    389.97034    486.93686      140.106    37001.621 
   37100    301.89843   -1294.7093     374.4315    442.17364    202.70761    37001.621 
   37200    302.98022   -1326.8616    399.14679    439.61865    27.096357    37001.621 
   37300    309.33456   -1311.8704    398.26073    482.40068    262.57409    37001.621 
   37400    302.60791   -1316.9639    397.97999    446.66939    820.20645    37001.621 
   37500    296.09646    -1336.615    406.01535    405.66782     746.1179    37001.621 
   37600    302.45092   -1303.4156    399.13003    460.65927    615.90923    37001.621 
   37700    289.53231   -1312.8069    382.00853    375.84544     1369.546    37001.621 
   37800    300.52298   -1311.4202    403.58797     448.4119    854.10128    37001.621 
   37900    311.43352   -1285.8597    401.00823    520.63131    459.52647    37001.621 
   38000    299.99154   -1289.8935    407.60514    471.55736    580.70508    37001.621 
   38100    292.28224   -1333.3244    400.58213    386.31175     694.1073    37001.621 
   38200    306.83699   -1320.6911    377.49297    441.54078    556.55076    37001.621 
   38300    303.39123    -1332.374    372.24957    409.06393    844.94077    37001.621 
   38400     299.4406   -1324.3558     408.6551    435.65868    540.50154    37001.621 
   38500    310.73569   -1323.1448    396.66785    475.85651    666.99643    37001.621 
   38600    290.96809   -1357.4622    411.50468    367.16592    578.11689    37001.621 
   38700    297.37648   -1321.3015    401.71357    422.45622      245.018    37001.621 
   38800    297.23153   -1306.5528    409.65766    444.49485    416.10842    37001.621 
   38900    304.18801   -1295.9384    402.07996    478.92575    559.87569    37001.621 
   39000    298.16784   -1291.3068    410.69873    465.00739    467.96109    37001.621 
   39100    304.35265    -1303.393    413.00469    483.13891    549.81298    37001.621 
   39200    298.85208   -1304.4154    402.08728    446.37535    20.484328    37001.621 
   39300    306.78737   -1291.1434    392.45545    485.82704    448.66537    37001.621 
   39400    292.93346   -1240.1035    400.61576    482.50524    196.02939    37001.621 
   39500    299.61964   -1284.9496    413.21879    480.43658    -195.6074    37001.621 
   39600    312.82454   -1316.8324      382.886    477.81396    471.91596    37001.621 
   39700    297.88664   -1289.3268    383.35405    438.37372    369.72238    37001.621 
   39800    293.28728   -1273.1847    396.84817     447.2533   -486.90823    37001.621 
   39900    294.34805   -1257.1348    410.01119    481.25336    193.89232    37001.621 
   40000    297.54856   -1313.8431    400.75592     429.7335    131.60251    37001.621 
   40100     285.7708   -1324.6309    393.80873    358.84619    -98.65868    37001.621 
   40200    308.19034   -1306.6324    401.25208    485.46616   -12.920759    37001.621 
   40300    302.94361   -1291.1513    383.87259    459.88957    46.566741    37001.621 
   40400    298.86716   -1292.3504    392.37232    448.79335    274.29851    37001.621 
   40500    302.09549   -1308.1345    397.59501    452.80126    601.53289    37001.621 
   40600    302.51146   -1324.8153     383.1517    423.55442    522.06236    37001.621 
   40700    302.95818   -1344.0742    418.53038    441.69016    268.62871    37001.621 
   40800    307.06083    -1311.567    413.84903    488.03114    1185.3203    37001.621 
   40900    303.28338   -1351.0367    406.31961    423.98455    258.55291    37001.621 
   41000    290.81988   -1340.0087      405.082    377.52786    4.4588958    37001.621 
   41100    297.28539   -1307.1647    401.08908    435.55745   -35.448103    37001.621 
   41200    295.89156   -1309.2935    379.89131    405.94053    30.059286    37001.621 
   41300    294.86817   -1284.2577    407.91401    454.38053     271.4784    37001.621 
   41400    295.29575   -1303.9869    389.19932    417.86636    578.00276    37001.621 
   41500    280.70252   -1276.1917    404.60327    395.20702    662.33199    37001.621 
   41600    302.17673   -1277.6957    396.51405    482.52572    984.87046    37001.621 
   41700    291.56949   -1290.6119    409.99491    435.22049    220.62252    37001.621 
   41800    307.20982   -1272.1229    422.25525    536.55383    446.19344    37001.621 
   41900    299.25491   -1259.2191    407.28213    498.58436   -85.092495    37001.621 
   42000    297.24403   -1325.2594    400.64729    416.83426   -257.60521    37001.621 
   42100     298.7268   -1272.9137    387.66825    462.89254     200.4591    37001.621 
   42200    294.90559   -1313.1059    403.76633    421.55351    -116.5924    37001.621 
   42300    298.31955   -1305.9633    400.82214    441.15904   -281.86565    37001.621 
   42400    304.68284   -1300.8439    399.21733     473.3908   -30.955052    37001.621 
   42500    302.91096   -1279.4315    427.01365    514.60306   -687.89591    37001.621 
   42600    298.86178   -1275.1678    423.99892    497.57834    67.563532    37001.621 
   42700    287.75565   -1273.7308    410.31767     435.2127   -726.13239    37001.621 
   42800    301.33393   -1306.1244    399.49349    453.27297    -357.0545    37001.621 
   42900    293.10624   -1293.6145    432.98186    462.14016   -286.03115    37001.621 
   43000    302.14184   -1298.6696    402.33619    467.21645   -438.26719    37001.621 
   43100    298.88078   -1309.4998    406.88289    446.21605   -79.858288    37001.621 
   43200    301.95412    -1283.967    432.47028    511.20603    664.37953    37001.621 
   43300    304.57898   -1316.2835      405.554    463.81911    565.39036    37001.621 
   43400    302.22456   -1285.4761    419.32404     497.7712     351.6557    37001.621 
   43500     317.0928   -1298.4972    410.89477    543.42037    76.669014    37001.621 
   43600    297.20293    -1257.977    413.58763     496.8715   -334.59932    37001.621 
   43700    305.69066   -1281.1734    422.60873    521.00087   -400.77838    37001.621 
   43800    305.75877   -1284.1956    402.89686    498.57426    333.08883    37001.621 
   43900    310.74715   -1311.6489    395.90238     486.6387    356.92665    37001.621 
   44000    299.29697   -1339.4984     406.8935    418.10625    70.749114    37001.621 
   44100    306.27169   -1332.5543    403.49693    453.13035    886.35001    37001.621 
   44200    294.90837   -1326.7479    422.20043    426.35819    344.72129    37001.621 
   44300    291.56252   -1306.1047    413.05382    422.75514    548.06425    37001.621 
   44400    299.40629   -1335.0352    423.34316    439.51256    137.98836    37001.621 
   44500     294.5995   -1314.2593    402.00312    417.25562    237.69253    37001.621 
   44600    290.34189   -1327.8743    429.35495    411.77801    601.60962    37001.621 
   44700    306.47253   -1355.5094    424.18477    451.76947    368.45086    37001.621 
   44800    303.96723   -1327.9185    408.53158    452.40087    711.64516    37001.621 
   44900    295.29721   -1308.4421    395.68956     419.9079   -117.65107    37001.621 
   45000    294.06176   -1275.9819    425.12603    476.22903    223.15006    37001.621 
   45100    293.48324    -1333.738    391.19413     381.9303    -92.90956    37001.621 
   45200    300.23683   -1284.1127    428.41677    499.25676    89.623262    37001.621 
   45300    300.20117   -1288.5311    399.80151     466.0622   -479.21922    37001.621 
   45400    290.70096   -1247.7882    419.75982     483.8895    -1083.562    37001.621 
   45500    297.26363    -1264.646     426.2824    503.17122    147.05109    37001.621 
   45600    304.07067     -1306.52    421.26476    486.99936    155.78251    37001.621 
   45700    297.29165   -1300.6385    442.15893    483.18169   -203.78309    37001.621 
   45800    292.82156   -1283.6503    414.63115    452.46886   -269.96993    37001.621 
   45900     308.8534   -1245.6551    430.05343    578.23719    56.183308    37001.621 
   46000    300.76834   -1269.5572    404.87031     492.6645    20.342711    37001.621 
   46100    303.77139   -1274.3872    428.07861    524.59544   -403.49905    37001.621 
   46200    310.92885   -1297.8751    434.51623    539.84634    -495.5537    37001.621 
   46300    298.47422   -1311.8141    420.59003    455.77415   -364.13456    37001.621 
   46400    290.33471   -1338.3076    436.97603    408.93341   -338.01719    37001.621 
   46500     309.0504   -1334.4269    440.17003      500.471   -75.842811    37001.621 
   46600    306.82955   -1377.1545    421.23136    428.78215    439.25553    37001.621 
   46700    300.26257   -1339.8968     424.0497    439.22181    -25.34585    37001.621 
   46800    305.92329   -1329.3709    421.05634    472.30087   -229.64556    37001.621 
   46900    302.99519   -1362.7084    419.77622    424.46885    332.85578    37001.621 
   47000    301.40497   -1365.4746    443.34667    438.09653    513.80458    37001.621 
   47100    303.61324   -1380.7645    415.61002    405.03582    284.85276    37001.621 
   47200    301.43979   -1433.3071    399.81846    326.89299    129.00292    37001.621 
   47300    287.77453   -1367.5888    409.66934    340.79158      65.4037    37001.621 
   47400    299.46545   -1349.3414    433.02185      435.152    88.475694    37001.621 
   47500    290.42378   -1391.8435    421.35764    340.18106     218.2627    37001.621 
   47600    298.35527   -1340.0479     437.8985    444.31191    545.61414    37001.621 
   47700    297.04116   -1344.9217    420.81668    416.42586     -212.684    37001.621 
   47800    307.96088   -1338.1154    416.53073    468.22628     -119.653    37001.621 
   47900    292.88324   -1322.8966    425.28936    424.15916    -449.5644    37001.621 
   48000    304.22982   -1340.9437    425.20405    457.23325   -473.34013    37001.621 
   48100    310.62066   -1314.4951    443.55149    530.87076   -512.40028    37001.621 
   48200    306.11819   -1317.3652    436.86072    500.99049    66.396381    37001.621 
   48300    295.93025   -1316.8282    454.80509    473.49423   -290.39769    37001.621 
   48400    310.28238    -1320.578    427.52138    507.23113     81.87887    37001.621 
   48500    301.24868   -1353.2833     442.6633    448.89918    752.92191    37001.621 
   48600    307.91816   -1391.4842    440.85207    438.98601    433.84111    37001.621 
   48700    310.33369   -1407.1613    434.05518    427.41316    918.13973    37001.621 
   48800    306.54443   -1376.4255    431.50303    438.49613    279.46627    37001.621 
   48900    308.79799   -1387.6472    435.31277    441.25435    115.71197    37001.621 
   49000    301.54593   -1394.2093    426.55266    393.20404    489.57783    37001.621 
   49100    306.79236    -1404.992    397.13628    376.68175    193.17325    37001.621 
   49200    298.21487   -1400.9762    406.85558    351.70706   -29.047044    37001.621 
   49300    294.03979   -1387.4495    417.53445    357.07072    180.68801    37001.621 
   49400    316.09097   -1384.8831     437.3639    478.98243    -96.03832    37001.621 
   49500     294.9103   -1420.8349    418.77282     328.8523    1.9868986    37001.621 
   49600    303.45345   -1366.0773     427.0901    430.48193    186.24276    37001.621 
   49700    291.78539   -1383.2283    458.99868    392.58216   -634.63872    37001.621 
   49800    302.91281   -1350.0744    403.21398    420.16883   -853.16538    37001.621 
   49900    300.79644   -1347.4809    433.37212     443.3694   -943.84733    37001.621 
   50000    289.69056   -1339.7219    427.01532     394.6514   -1018.8093    37001.621 
   50100    304.04355   -1370.5087    442.83008    444.45369   -409.94969    37001.621 
   50200    304.98187   -1380.8403    435.92601    431.45252   -774.25516    37001.621 
   50300     302.9962   -1408.2276    432.61158    391.78959   -355.70695    37001.621 
   50400    300.94447    -1366.622    417.73971      409.264   -316.58741    37001.621 
   50500    290.77611   -1398.6995    412.53383     326.0913   -68.020311    37001.621 
   50600    301.56293   -1374.2519    416.43038    403.11579     406.3266    37001.621 
   50700    299.47781   -1351.4348     431.0362    431.12866    269.88587    37001.621 
   50800     313.6077    -1354.302    439.23235    500.22509     18.30001    37001.621 
   50900    297.39173   -1381.5897    420.82712     381.3504   -282.94095    37001.621 
   51000    304.57254    -1362.339    432.89587    445.07644    501.86955    37001.621 
   51100    289.97837   -1408.7102    436.92632    336.87298    5.1538164    37001.621 
   51200    302.80219   -1428.3797    428.83115    366.98149   -146.87377    37001.621 
   51300    296.60739   -1344.4855     433.4157    427.50346   -188.51473    37001.621 
   51400    299.38121   -1351.7453    424.70593    424.05196   -286.97057    37001.621 
   51500    297.95583    -1379.132    435.84058    401.36726   -582.33667    37001.621 
   51600    284.68125   -1383.7101    402.73675     303.7779   -915.34755    37001.621 
   51700    294.78001   -1410.4717    401.27868    321.13336    -426.2773    37001.621 
   51800    316.29047   -1414.9586    411.72742    424.17072    281.35958    37001.621 
   51900    297.62538   -1388.0096    424.11841    379.27618   -13.432692    37001.621 
   52000    304.85756   -1386.6573    457.47779    446.62636    26.961601    37001.621 
   52100    300.05487   -1429.1361    445.84802    370.84347   -595.20311    37001.621 
   52200    297.96061   -1385.1585    421.19403    380.71581   -449.38285    37001.621 
   52300    301.33228   -1330.7087    440.58732    469.77507   -578.25834    37001.621 
   52400    310.23319    -1345.197    435.83912     490.7079   -422.59086    37001.621 
   52500    293.29175   -1372.0998    419.90177    371.41194   -591.17914    37001.621 
   52600    311.97865   -1319.9495    438.21285    526.20622    52.412485    37001.621 
   52700    296.35815   -1351.0797    449.96544    436.33414    263.21054    37001.621 
   52800     291.4017   -1374.5957    426.40511     366.8897     214.6387    37001.621 
   52900    298.19324    -1351.879    428.07755    421.92862    -19.37156    37001.621 
   53000    303.10921   -1335.0717    438.61046    471.45435    327.57697    37001.621 
   53100    313.98225   -1366.6571    427.60491    477.93293    344.63498    37001.621 
   53200    306.19072   -1369.3823    440.06843    452.50843    292.31467    37001.621 
   53300      301.217   -1386.5922    415.76117    388.54515    363.29007    37001.621 
   53400    288.96433   -1362.2558    449.39757    391.22231   -25.012086    37001.621 
   53500    302.86453    -1349.165    452.24931    469.89564    364.67354    37001.621 
   53600    297.55641   -1337.2275    462.21258    467.84116    731.31249    37001.621 
   53700    299.87651   -1366.5585    455.73306    442.50113    75.701373    37001.621 
   53800    296.72536   -1354.3131    444.61673     429.4093   -139.61124    37001.621 
   53900    309.16746   -1371.0464    430.72987    454.93964    423.98728    37001.621 
   54000     310.4941     -1350.11     439.1362     490.2694    138.24783    37001.621 
   54100    295.42964   -1335.0698    464.45002     462.6384    -47.96129    37001.621 
   54200    313.14113    -1385.627    436.67293    464.23504    382.58244    37001.621 
   54300    296.56552   -1331.5182    461.35234    468.21842    159.95415    37001.621 
   54400    305.42213    -1321.055    447.39802    504.69669    137.29069    37001.621 
   54500     291.4304   -1354.0745    432.44019    393.57545   -532.55403    37001.621 
   54600    293.13675   -1379.1997    434.01685    377.72765   -505.21399    37001.621 
   54700    296.25946   -1384.5345    458.14138    410.60992   -114.90767    37001.621 
   54800    298.53245   -1349.2631    428.70865    426.70647   -218.08437    37001.621 
   54900    296.32062   -1370.6622    440.56066    407.17754     18.32963    37001.621 
   55000    303.29043   -1375.7865    447.20603    440.15304    49.751776    37001.621 
   55100    306.57295   -1413.6674    443.43106    413.31099   -132.50808    37001.621 
   55200    302.83503   -1363.3191    416.73828    420.09744    238.07422    37001.621 
   55300    293.84361   -1373.2599    437.45102    390.29159   -585.79032    37001.621 
   55400    299.33606   -1367.7011    446.80118    429.98772    191.59007    37001.621 
   55500    298.36112   -1409.5487    440.61008    377.54911    376.29545    37001.621 
   55600    304.58547    -1372.439     437.7987    439.93754    333.57566    37001.621 
   55700    293.03969   -1401.9671     454.8911     375.3964     421.6137    37001.621 
   55800    306.80656   -1414.6669    431.51162    401.44627    60.148007    37001.621 
   55900     310.7457    -1364.458    454.10419    492.02481    137.43551    37001.621 
   56000     309.5582   -1361.4003    440.23453     475.8538    600.69183    37001.621 
   56100    307.90076   -1359.1886    440.47098    470.82199     536.5905    37001.621 
   56200    303.40551   -1389.5747    453.19307    432.87111   -284.92633    37001.621 
   56300    316.89143   -1368.7236    411.71977     473.1102    45.886127    37001.621 
   56400    296.99336   -1375.3495    443.28676    408.25239    141.91752    37001.621 
   56500    295.12032   -1373.3605    458.94656    417.44828    -177.8635    37001.621 
   56600    313.72644   -1377.7811    456.01607    494.06561   -474.65704    37001.621 
   56700    301.96034   -1390.3821    447.51639    419.86509   -199.87402    37001.621 
   56800     302.5797   -1369.5738    435.64565    431.59786   -49.208006    37001.621 
   56900     305.7424   -1364.3081    417.97739    433.46839   -160.74251    37001.621 
   57000    292.13037   -1423.0575    437.50298    332.81415   -743.96422    37001.621 
   57100    293.36167   -1332.3112    432.22967    423.84399   -256.68909    37001.621 
   57200    273.07075   -1383.2665    440.80852    289.89562   -486.47279    37001.621 
   57300    304.01592   -1369.2408    444.50395    447.27066   -283.02668    37001.621 
   57400    296.10543   -1358.8044    456.60185    434.10538   -163.70025    37001.621 
   57500    311.97762   -1333.3228    459.41834    534.03389    47.873588    37001.621 
   57600    310.52743   -1366.4458    425.12949    460.07736    69.463129    37001.621 
   57700      311.334   -1386.9958    434.96066    452.99855    -316.2989    37001.621 
   57800    300.32367   -1376.8102    445.24461    423.77906   -201.04881    37001.621 
   57900    314.05398   -1386.7846    428.38245     458.9066   -431.22714    37001.621 
   58000    305.02019   -1373.2495    430.94421    434.23449    391.54594    37001.621 
   58100    301.53247   -1393.9098    471.02841    437.91853   -171.86233    37001.621 
   58200    301.38303   -1357.0536    450.01193    453.08377   -41.585221    37001.621 
   58300    304.65587   -1398.3017    424.28353    400.87744   -221.91122    37001.621 
   58400    301.76814   -1394.2348    444.35347    411.98209   -65.611518    37001.621 
   58500    292.96916   -1404.9499    460.71445    377.91866    143.44088    37001.621 
   58600    303.62652   -1393.2854    444.23386    421.19869    156.12367    37001.621 
   58700    298.47507   -1386.3671     457.9578    418.59275   -43.622863    37001.621 
   58800    299.39269   -1398.0298    455.11412    408.22743    124.76042    37001.621 
   58900    305.02803   -1395.0442    459.77418    441.30513   -144.01904    37001.621 
   59000     294.5701   -1389.5552    444.69053    384.51442   -68.228605    37001.621 
   59100    298.83936   -1367.7074    464.95052    445.88915     128.0037    37001.621 
   59200    288.85476   -1372.4326    455.69428    386.84775   -272.68873    37001.621 
   59300    290.07801   -1381.0077    462.53018    390.62902    -452.4587    37001.621 
   59400    302.12762   -1354.2811    465.11029    474.31494    -453.1135    37001.621 
   59500    295.04153   -1375.7235    460.80884    416.59197   -167.41943    37001.621 
   59600    309.07539   -1411.3925    446.05138    429.49954    243.18437    37001.621 
   59700    296.49343   -1362.9615     460.8689    435.96636    531.98444    37001.621 
   59800    298.07424   -1390.3628    436.27006    391.10036     119.0084    37001.621 
   59900    301.44457   -1434.8288    448.96262    374.53699    695.82306    37001.621 
   60000     302.0462   -1422.9478    462.70299    402.87351     1277.982    37001.621 
   60100    298.94471   -1360.1379    473.50807    462.49158    801.03613    37001.621 
   60200    289.61608   -1401.5234    447.13572    352.63411    627.63991    37001.621 
   60300    303.33852    -1379.311    446.44589    436.08536    368.05294    37001.621 
   60400     289.0536   -1410.0087     441.8232    336.29793     533.6504    37001.621 
   60500    306.09278   -1383.3859    441.09165    439.08602    374.70741    37001.621 
   60600    297.79822   -1359.9669    471.56178    455.54225    1091.4423    37001.621 
   60700    293.28799   -1415.3139    468.47331    376.75242     1097.906    37001.621 
   60800    303.86962   -1402.1456    476.97534    446.17704    1244.3135    37001.621 
   60900    286.98574   -1406.0617    465.91387    355.00346     366.3176    37001.621 
   61000    307.36803   -1413.5875    449.75635     423.3043    897.51215    37001.621 
   61100    297.59612    -1421.975    465.30868    386.36899    806.24747    37001.621 
   61200    302.69679   -1374.9951    463.36523    454.42449    166.22992    37001.621 
   61300    296.21267   -1389.2943    457.67227    405.16984    1049.4536    37001.621 
   61400    310.50203    -1400.489    453.18169    453.97173    727.49732    37001.621 
   61500    291.56616   -1430.5358    457.23056    342.51723    628.06645    37001.621 
   61600    283.63663   -1433.9459    457.38344    303.47446    649.11745    37001.621 
   61700    307.25421   -1430.4488    474.97525    431.14827    338.86906    37001.621 
   61800    288.51747   -1383.2503    434.55348    353.36708    587.15319    37001.621 
   61900    306.92193   -1409.0945    412.09508    388.12286     53.31438    37001.621 
   62000    301.35714    -1393.081    446.42779    413.35545    415.95328    37001.621 
   62100    303.68167   -1412.3454     441.5459    399.69958    112.38709    37001.621 
   62200    291.38738   -1387.2247    471.37871    399.16963   -390.10899    37001.621 
   62300    306.72832   -1385.5272    458.69365    457.41491    130.31826    37001.621 
   62400    294.09005   -1387.4855    464.23202     403.9592   -285.38568    37001.621 
   62500    296.46566   -1402.2621    462.14612    397.81766    -240.5842    37001.621 
   62600    295.48472    -1402.099    441.77616    373.18385    496.53169    37001.621 
   62700    304.16651   -1375.1319    426.33867    423.89397    770.99695    37001.621 
   62800     299.0639   -1380.5359    463.48004     432.6035    472.76425    37001.621 
   62900    299.09312   -1377.5282    487.93938    460.20237   -130.09126    37001.621 
   63000    308.52959   -1397.5942    457.08547    451.86877     317.9742    37001.621 
   63100    304.71387   -1422.2191    461.19221    414.13047    505.26008    37001.621 
   63200    304.02686   -1390.2721    441.66898    423.45383   -82.987907    37001.621 
   63300     305.0833   -1390.5936    441.79998    428.03097   -262.94509    37001.621 
   63400     293.7359   -1421.9223    453.73724    357.42928    120.83881    37001.621 
   63500    296.75142   -1431.2317    442.82993    350.82154   -237.65476    37001.621 
   63600    290.34813    -1445.104    430.57446    295.79604    -371.3439    37001.621 
   63700    299.86014   -1414.7963    461.71747    400.17392   -126.94391    37001.621 
   63800    293.37849   -1367.4048    464.75122    421.34784    538.50996    37001.621 
   63900    305.02433    -1393.243    474.50294    457.81841     828.9192    37001.621 
   64000    308.86345   -1405.2071    436.36242    425.03958    1108.8025    37001.621 
   64100     302.1289   -1386.9744    449.55989      426.077    786.71824    37001.621 
   64200    302.53245   -1380.5179    470.93005     455.7249    162.72599    37001.621 
   64300     307.1804     -1377.34    456.28255    465.23126    216.25856    37001.621 
   64400    293.23339   -1381.4702    452.32302    394.19944   -189.77939    37001.621 
   64500     304.6985   -1390.1026    465.65426    450.63963   -95.973181    37001.621 
   64600    301.91088   -1363.0484    499.83666    499.29592    163.74197    37001.621 
   64700    295.89893   -1359.7493    459.73215    435.35883   -249.96493    37001.621 
   64800    316.17759   -1383.5949     457.2516    500.54928    144.73588    37001.621 
   64900    298.56501   -1364.2815     460.0735    443.19992     54.61275    37001.621 
   65000    300.88837   -1373.2997    456.34251    440.93592    128.29053    37001.621 
   65100    300.24443   -1354.6576    469.46196    469.79142   -79.901621    37001.621 
   65200    305.48551   -1368.4189     449.5128    459.73366   -138.64961    37001.621 
   65300    288.55877   -1379.2714    462.14696    385.12578   -198.80976    37001.621 
   65400    312.90299   -1415.2182    455.20229    452.09853    182.02926    37001.621 
   65500    300.93583   -1348.5461    488.29544    497.85662    62.756342    37001.621 
   65600    290.61658   -1432.4857    444.86081    323.91218    488.21878    37001.621 
   65700    297.43457    -1413.999     449.9613    378.26856    227.21153    37001.621 
   65800    301.18877   -1413.1798    458.06669    404.13563    253.63848    37001.621 
   65900    294.00568   -1405.6449    465.56806     386.7551    397.32328    37001.621 
   66000    295.73908   -1363.4187    452.47741    423.71335    986.79382    37001.621 
   66100    309.15744   -1398.7306    460.72455    457.20493   -585.74011    37001.621 
   66200    303.39043   -1358.0356    468.32367    479.47283    -457.1387    37001.621 
   66300    298.77061   -1362.3112    458.09651    444.12106   -463.83941    37001.621 
   66400    293.54842   -1394.0161    441.52973    372.28195   -178.91224    37001.621 
   66500    298.15498   -1377.6846     451.0503    418.92313    100.78816    37001.621 
   66600    306.82157     -1390.16    458.49914    453.00843   -617.57625    37001.621 
   66700    295.44053   -1391.4159    447.03929    388.93061   -262.02332    37001.621 
   66800    302.35142    -1456.589    477.70539    385.61214    33.872395    37001.621 
   66900    293.89914    -1425.175    478.51251    379.68853    -394.9053    37001.621 
   67000    304.11855   -1444.9295    437.86075    365.40196    334.16331    37001.621 
   67100    303.47901   -1445.6602    437.85243    361.77671    -1.460686    37001.621 
   67200    300.09313   -1426.7657    459.60851    387.14696   -49.633351    37001.621 
   67300    313.33867   -1437.2121    446.89467    423.76317   0.60261748    37001.621 
   67400     295.4707   -1455.0909     460.8676    339.22013    258.00998    37001.621 
   67500    288.35166    -1470.364    426.01413    256.96571     326.8636    37001.621 
   67600    298.78789   -1438.9349     457.1761    366.65494   -194.83743    37001.621 
   67700    295.57301   -1440.1088    474.01898    367.81531   -273.58491    37001.621 
   67800    309.27996   -1409.1703    442.20646    428.80008    163.38822    37001.621 
   67900     307.3664   -1447.0635    463.36594    403.43058    261.39358    37001.621 
   68000    299.60639   -1428.7124    460.92287    384.31803    473.73012    37001.621 
   68100    300.17826   -1437.0672     485.7995    403.42071    -62.65229    37001.621 
   68200    300.19242   -1422.1535     470.2042    402.80303    232.19284    37001.621 
   68300    298.94588    -1393.356    456.45181    412.22249    516.80145    37001.621 
   68400    298.89024   -1407.8703    482.83901    423.84437    825.58027    37001.621 
   68500    306.35605   -1469.2677    452.06722    365.36798     232.2152    37001.621 
   68600    295.95745   -1475.6586    462.97579    322.95728    47.947829    37001.621 
   68700    302.63242   -1430.2394    447.70227    383.22676    151.11842    37001.621 
   68800    292.69665   -1447.9987    449.28311    322.20868    -187.9086    37001.621 
   68900    310.36323   -1451.8159    457.96727    406.80398   -309.01465    37001.621 
   69000    303.61587   -1430.4085    491.03577    430.82939   -687.93183    37001.621 
   69100    293.19334   -1443.5549    455.77407    335.38503   -297.06171    37001.621 
   69200    292.16855    -1406.573    430.80467    342.77274   -305.92294    37001.621 
   69300    295.26863   -1417.3545    462.85483     378.0319   -253.28836    37001.621 
   69400    301.00873    -1420.421    482.27889     420.2942   -57.017882    37001.621 
   69500    294.19459   -1410.1455    451.89918    369.43809    38.287005    37001.621 
   69600    298.06076   -1421.3722    472.21826    395.97831    262.39237    37001.621 
   69700    307.06396   -1393.9944    449.10927    440.87803    173.67503    37001.621 
   69800    304.38105   -1409.0206    467.86776    432.50258    454.88723    37001.621 
   69900    292.10817   -1411.2614     498.2738    405.28098   -26.734508    37001.621 
   70000    300.11947   -1348.4548    470.05488    476.02319    130.36458    37001.621 
   70100    298.09731   -1344.4724    462.54101    463.36579    530.32416    37001.621 
   70200    284.90044   -1360.8383    485.79695    410.69905    504.25589    37001.621 
   70300    293.60497   -1353.7791    467.72513    438.96954    599.72935    37001.621 
   70400    305.63636    -1398.675    464.79643    445.44196    548.78927    37001.621 
   70500    298.75116   -1386.1956    457.67245    419.72484    630.83145    37001.621 
   70600     301.6582   -1425.1293    464.44826    400.68622    374.09908    37001.621 
   70700    296.47707   -1406.9213    479.53087    410.59468   -591.88885    37001.621 
   70800     304.4621    -1366.799    466.44635    473.66852   -778.10943    37001.621 
   70900    305.18325   -1349.9135     466.9294    494.29155   -387.09722    37001.621 
   71000     301.8141   -1380.0897    477.16559    459.14678   -504.28633    37001.621 
   71100    301.29841   -1368.1909     467.8539    459.40655   -194.50658    37001.621 
   71200    300.38623   -1362.6179      457.081    450.09003    446.81895    37001.621 
   71300    307.24382   -1389.5722    462.27912    459.28187    530.98585    37001.621 
   71400    297.96774   -1413.3093    471.27491    402.67806    367.76062    37001.621 
   71500    308.65143   -1372.4972    467.30962    487.73982    1030.8361    37001.621 
   71600    302.59386   -1370.9244    480.12749    474.79299    1473.9262    37001.621 
   71700    310.27105   -1401.0655    479.31751    478.48861    942.07719    37001.621 
   71800    304.39889   -1367.5882    463.80967    469.95732    835.18147    37001.621 
   71900    292.72178   -1412.3861    502.77058    411.42217    742.33587    37001.621 
   72000    296.83318   -1413.0941    455.81442    382.31262    483.32727    37001.621 
   72100    295.67721   -1387.7049    459.53624    406.20679   -226.67514    37001.621 
   72200    300.27952   -1375.0441    494.76552    474.86679    -146.9678    37001.621 
   72300    302.85203   -1386.4592    464.42372    444.71954    140.84673    37001.621 
   72400    290.75721   -1362.2663    474.83819    424.74361    597.34115    37001.621 
   72500    312.06387    -1349.529    477.06909    535.86759    226.41285    37001.621 
   72600    300.78409   -1390.9094    474.31565    440.82878     30.06263    37001.621 
   72700    294.08346   -1386.4157    474.55971     415.3269   -391.37913    37001.621 
   72800    294.82965   -1344.3365    481.18714    467.40109    374.56944    37001.621 
   72900    300.46565   -1366.2224    492.06875    481.83175    252.28627    37001.621 
   73000    304.40785   -1387.3133    481.52991    467.99292    234.24143    37001.621 
   73100    295.19246   -1351.8421     475.4333    455.77898    269.72374    37001.621 
   73200    295.04668    -1387.779    475.00239    418.75323    64.325386    37001.621 
   73300    307.71321   -1410.2809    496.10088     474.5132    438.58995    37001.621 
   73400    306.20435   -1390.7412    458.07398    449.21657    706.92816    37001.621 
   73500    307.11966    -1369.854    472.71619    488.87673   -396.31031    37001.621 
   73600    308.35767   -1368.0473    469.77057    493.32488     -48.1707    37001.621 
   73700    298.14047   -1433.0064    453.52647      366.012   -126.79786    37001.621 
   73800    305.00691   -1402.5797    469.04483      442.945    85.758432    37001.621 
   73900    303.64106   -1388.0677    471.18082    453.42895   -226.83448    37001.621 
   74000    304.62187   -1398.0004    475.55566    452.29748   -818.42712    37001.621 
   74100    308.76836   -1414.8101    464.52659    443.17156   -704.68942    37001.621 
   74200    280.87284   -1410.6119    475.66412    332.61627   -307.41831    37001.621 
   74300    298.35999   -1433.0713    458.28885    371.70014    76.433959    37001.621 
   74400    293.63973   -1419.0702    474.97541    381.08562   -64.979624    37001.621 
   74500    305.62775   -1450.2475    455.78922    384.82339   -278.36668    37001.621 
   74600    303.93065   -1401.4581     469.3286    439.49326    194.36337    37001.621 
   74700    304.16725   -1401.9609    477.07272    447.80234    327.64204    37001.621 
   74800    295.62891   -1423.2187    472.00994     382.9487    61.591579    37001.621 
   74900    297.17867   -1411.0984    474.73946    404.79245    113.38403    37001.621 
   75000    300.08003   -1350.6526    449.62474    453.21727   -121.41291    37001.621 
   75100    312.01505   -1389.0504    456.11594    475.17279   -293.31033    37001.621 
   75200    295.89434   -1415.0694    475.59612    395.88206   -164.57066    37001.621 
   75300    307.88961    -1430.051    452.67508    412.11337    179.13546    37001.621 
   75400    306.42708   -1392.8354    453.74576    443.79932    154.63455    37001.621 
   75500    293.22556    -1423.061    474.50211    374.75237    88.235089    37001.621 
   75600    311.03061   -1438.4248    466.21667    431.45636    102.36484    37001.621 
   75700    294.10141   -1455.2159    452.18525     324.2333     109.0936    37001.621 
   75800     305.8439   -1418.8916    473.98776     435.3533    242.89486    37001.621 
   75900    291.89763   -1454.8034    467.19986    329.71483     174.8327    37001.621 
   76000    297.16252   -1405.3723    497.67749    433.38375   -52.808324    37001.621 
   76100    291.06881   -1368.0084    473.96545    419.53495    571.87168    37001.621 
   76200     308.2219   -1415.5555      482.043     457.4764    451.11502    37001.621 
   76300    295.66367   -1438.6395    482.31308    377.98791    72.994468    37001.621 
   76400    289.75678   -1431.0625    454.24301     330.8373    52.539955    37001.621 
   76500    306.09963   -1364.5995    458.97566    475.78744    330.89484    37001.621 
   76600    295.75074   -1410.2079    460.38115    384.88045    35.613908    37001.621 
   76700    292.99064   -1399.2452     468.1189    391.12473    54.525175    37001.621 
   76800    294.32088   -1393.5414    469.22194    403.93488    54.498747    37001.621 
   76900    291.04617   -1358.4803    452.40505     407.4005    469.84938    37001.621 
   77000    305.02321   -1393.2461    466.00877    449.31604   -340.73111    37001.621 
   77100     301.4807   -1401.2278    507.71505    467.05352    230.01647    37001.621 
   77200    299.36983   -1417.8817    471.00329     404.1616    -352.6327    37001.621 
   77300    307.98948   -1438.9881    462.55314    413.50502   -281.11864    37001.621 
   77400    294.52059    -1436.542    447.38196    339.99558   -55.867755    37001.621 
   77500    304.84226   -1402.5496    469.76267    442.94987    -345.7215    37001.621 
   77600    293.95238   -1420.6853     454.3437    360.24976    -546.8318    37001.621 
   77700    290.17386    -1414.686    465.06102     359.9141   -236.05992    37001.621 
   77800    294.40087   -1378.3848    478.30985    428.54039   -348.13763    37001.621 
   77900    310.33671   -1410.9578    442.72843    432.30356   -340.87391    37001.621 
   78000    299.70957   -1430.7409    466.87251    388.70486   -886.33407    37001.621 
   78100    310.68128   -1413.0682    459.64654    448.66635   -720.09716    37001.621 
   78200    297.48068    -1390.889    484.95719    436.58251   -738.61995    37001.621 
   78300    307.16468   -1390.8274    472.97843    468.36881    58.924998    37001.621 
   78400    301.05648   -1415.2755    475.09568    418.47192   -30.267638    37001.621 
   78500    302.73915   -1365.8749    478.06393    478.43465    222.54038    37001.621 
   78600     305.1355   -1400.9864    486.89589    462.96968     320.4992    37001.621 
   78700    300.87595   -1424.1082    490.34125    424.07009   -278.57348    37001.621 
   78800    300.21803   -1412.2696    483.49299    426.09121    861.05238    37001.621 
   78900    304.51406   -1393.0295    467.56576    448.79189    71.257893    37001.621 
   79000    307.77805   -1432.2064    464.48122    421.26071   -471.66437    37001.621 
   79100    302.37668   -1400.3931    457.22448     421.4411      19.2899    37001.621 
   79200    295.71013   -1417.9931    473.13041    389.66129   -768.10574    37001.621 
   79300    304.20387   -1441.9827    473.67734    404.55041   -355.05763    37001.621 
   79400    303.93542   -1427.2228    483.88646     428.3079   -121.86149    37001.621 
   79500    306.98744    -1407.956    507.58799    485.04983   -119.01714    37001.621 
   79600    290.03393    -1407.857    477.39679    378.44736    150.26972    37001.621 
   79700    304.04713   -1388.1065    482.50755    466.54949   -242.26657    37001.621 
   79800    293.96987   -1350.5497    486.58607    462.70665   -23.146882    37001.621 
   79900    313.42013   -1350.7712    482.84083    546.51787    421.74092    37001.621 
   80000    287.12108    -1413.105    493.02668    375.68378   -32.192064    37001.621 
   80100    298.68773   -1379.9883    468.70044    436.67389    79.364427    37001.621 
   80200    296.34924   -1429.8235    483.02644    390.61115    40.995869    37001.621 
   80300    308.33067    -1431.479     464.0721    424.07286   -314.04503    37001.621 
   80400    289.10309    -1418.394    477.64018    363.95288   -568.07294    37001.621 
   80500    302.52417   -1417.2849    476.90375    424.89422   -234.30542    37001.621 
   80600    298.19532   -1445.0157    451.02621    351.74997    288.02409    37001.621 
   80700    299.86955   -1415.9966    469.25475     406.5534    298.04489    37001.621 
   80800    294.27142   -1434.1673    433.91599     327.7798   -354.95376    37001.621 
   80900    296.75435   -1435.3264    450.24622    354.15623    -746.2703    37001.621 
   81000    302.19954   -1456.3337    469.75707    377.23373   -787.71477    37001.621 
   81100    304.02949   -1377.6854    451.16015    445.54361   -570.64925    37001.621 
   81200    303.56263   -1378.9343    511.59959    502.62718   -590.76141    37001.621 
   81300    296.21027   -1394.4102    457.75294    400.12385    140.80168    37001.621 
   81400    306.64233   -1415.3801     486.5552    455.03554   -32.241219    37001.621 
   81500     304.5334   -1389.8676    486.29682    470.77213    152.13361    37001.621 
   81600    295.39222   -1398.7802    475.68739    409.99645    378.05785    37001.621 
   81700    303.67926   -1424.2539    463.81384    410.04819    400.90019    37001.621 
   81800    290.43805   -1428.4313    474.36926    356.66934    1114.6149    37001.621 
   81900    297.04373   -1446.0997    489.44443    383.88719    866.78458    37001.621 
   82000    292.85682   -1437.6914    459.86716     343.8229     446.0091    37001.621 
   82100    295.81209   -1489.0161    456.63556    302.60354     252.8306    37001.621 
   82200    312.04502   -1493.5872    457.51797    372.17326    812.20459    37001.621 
   82300    301.72694   -1450.8074     498.1623    409.03245    161.74634    37001.621 
   82400    290.23129   -1438.6607    456.88138    328.01892   -328.59581    37001.621 
   82500    314.63257   -1464.5817    466.58334     421.9216    157.07109    37001.621 
   82600    302.78246   -1418.8345    470.81159     418.4181    37.367699    37001.621 
   82700    302.70827   -1395.2578    485.79566     456.6441   -213.45328    37001.621 
   82800    312.38569   -1402.4017    463.25028    470.62842   -509.48295    37001.621 
   82900    302.02231   -1419.6816    483.44116    426.77004   -124.02367    37001.621 
   83000     300.4894   -1410.0337    482.24883    428.30765    308.93949    37001.621 
   83100     296.2049   -1382.8391    457.30716    411.22491   -182.87132    37001.621 
   83200    304.60118   -1368.0904    475.01699    481.57544   -172.46459    37001.621 
   83300    294.23758   -1400.3759    457.89329    385.39578   -240.61762    37001.621 
   83400    294.75205   -1418.5761    480.70671    392.33084   -385.55863    37001.621 
   83500    297.56897   -1410.4107     472.5396    405.04167   -247.92204    37001.621 
   83600    303.99234    -1468.673    462.95275    366.18089     108.1909    37001.621 
   83700    301.01026   -1432.1103    454.61209    380.94499    13.278069    37001.621 
   83800    300.97863   -1472.7672    470.58006    356.11327   -452.54817    37001.621 
   83900    299.72004   -1478.4763    461.24005    335.38421     -407.648    37001.621 
   84000     295.3419   -1480.4692    450.44098     302.8339   -621.76487    37001.621 
   84100    295.95228   -1414.4898    466.60813    387.73512   -457.62459    37001.621 
   84200    298.98975   -1454.4887    455.64428    350.48027   -415.37148    37001.621 
   84300    296.16983   -1436.0945    462.11373    362.61785   -759.53068    37001.621 
   84400    303.48178   -1439.8237    452.66775    382.44105   -174.61799    37001.621 
   84500    305.31789   -1431.8498    476.12216    422.15561    -553.5516    37001.621 
   84600     300.3719   -1490.8255    441.42163    306.15843    -227.0599    37001.621 
   84700    297.92307   -1460.0541    451.11033    335.56704   -619.64536    37001.621 
   84800    299.22493   -1430.5683    452.04746    371.86522   -230.59867    37001.621 
   84900    292.98335   -1453.1139    461.22923    330.33343   -150.98956    37001.621 
   85000    299.81155   -1499.1291    459.18505    313.08936    26.149299    37001.621 
   85100    298.66632   -1392.8235    438.24543    393.28707    431.01786    37001.621 
   85200    308.82094   -1422.2638     453.1375    424.56605    343.23235    37001.621 
   85300     294.5881   -1476.0139    465.34457    318.79093    30.798939    37001.621 
   85400    299.35954   -1461.0234    454.32366    344.29382      442.826    37001.621 
   85500    297.15543   -1451.1035    472.74201    362.68504     227.9814    37001.621 
   85600    300.44038   -1443.1803     470.3982    383.08925   -83.218792    37001.621 
   85700    314.97943   -1441.4867    460.03284    440.03142   -265.67734    37001.621 
   85800    297.09975   -1401.2808    473.79965    413.31414   -63.586808    37001.621 
   85900    306.02313    -1393.321    467.75754    455.50253   -317.82083    37001.621 
   86000    309.87812   -1393.5038    472.21695    477.17646    -468.3042    37001.621 
   86100    297.00428   -1418.2781    475.89432    397.98059   -394.25253    37001.621 
   86200    295.06032   -1427.3885    468.45999    372.66293   -146.29352    37001.621 
   86300    308.12432   -1413.8539    472.66007    449.35469   -861.41405    37001.621 
   86400    295.20653   -1407.3374    471.49953    396.41333   -830.78309    37001.621 
   86500    307.70958   -1425.1139    448.61745    412.18039   -337.70072    37001.621 
   86600    300.73868   -1435.8313    463.00503     384.3913   -534.59249    37001.621 
   86700    303.26231   -1436.2146    486.85453    419.24645   -558.12874    37001.621 
   86800      293.577   -1423.2731    459.18805     360.8122    -594.0388    37001.621 
   86900    295.35818   -1443.0701    437.10719    326.97269   -763.49608    37001.621 
   87000    297.58695   -1414.5191    456.65729    385.13219   -650.24497    37001.621 
   87100    304.34142   -1437.8347    435.71525    371.35711   -517.19478    37001.621 
   87200    293.95469   -1411.6417    453.96077    368.92081     155.5594    37001.621 
   87300    298.15069   -1433.4107    458.35544    370.48285    99.149023    37001.621 
   87400    287.76236   -1428.2137    469.83432     340.2767    335.94705    37001.621 
   87500    290.72944   -1408.4666    459.36068    362.94042     240.2373    37001.621 
   87600    302.74018   -1402.5468    487.19826    450.90168    410.11022    37001.621 
   87700    289.61414   -1375.9785    464.67316    395.70781    222.46192    37001.621 
   87800    299.77116   -1415.9639    460.59974    397.48699   -54.894671    37001.621 
   87900    304.65073   -1393.9765    495.55806    476.45394    138.56962    37001.621 
   88000    293.00387    -1378.299    464.78559    408.79735   -301.27857    37001.621 
   88100    299.02578   -1346.0137    450.34781    453.82147    356.61128    37001.621 
   88200    299.36452   -1390.3836    457.64948    418.28189   -331.46262    37001.621 
   88300    310.02747   -1378.5036    450.68965    471.32337   -911.08735    37001.621 
   88400    289.96932   -1402.1648    458.06314    364.51428   -752.93013    37001.621 
   88500    291.17891    -1393.929    462.24231    382.38816   -467.90786    37001.621 
   88600    302.82459   -1412.6013     473.0331    427.06296    196.19774    37001.621 
   88700    303.00795   -1424.1144     488.0071    431.35132   -73.075554    37001.621 
   88800    296.27791   -1408.1232    453.21138    382.17449   -11.892221    37001.621 
   88900    305.58106   -1399.0074    440.38015    420.44371    244.65135    37001.621 
   89000    308.12297   -1405.9145     484.5616     469.1895   -341.34628    37001.621 
   89100    299.42417   -1375.6055    469.41782    445.09753    98.196192    37001.621 
   89200    295.78632   -1399.2255    446.93664    382.57899   -164.62585    37001.621 
   89300    301.35146   -1415.6453    478.96258    423.30021   -325.75766    37001.621 
   89400    290.19074   -1390.2593    487.79075    407.14668    95.813475    37001.621 
   89500    302.67639   -1399.8306    457.88823    424.01994   -223.04072    37001.621 
   89600    301.20709   -1418.9885    482.69522    423.03823    62.026754    37001.621 
   89700    297.09188    -1447.302    478.05664    371.51441   -371.52868    37001.621 
   89800    301.64416   -1441.2006    473.51758    393.62092   -500.75957    37001.621 
   89900    299.26687   -1446.0157    458.15493    362.71457   -52.496451    37001.621 
   90000    292.71521   -1439.0748    453.61683    335.55008     696.5117    37001.621 
   90100     294.2477   -1435.0423    459.06481    351.94662    434.42442    37001.621 
   90200    293.96182   -1385.0068    488.85531    430.48245    73.163619    37001.621 
   90300     301.2459   -1411.5897    454.97435    402.89126    224.60452    37001.621 
   90400    306.28991    -1365.593    488.18629     504.8633    738.87114    37001.621 
   90500     299.0997   -1377.4494    449.62583    421.99738    196.62105    37001.621 
   90600    295.64551   -1384.1227    476.62044    426.73004    106.59831    37001.621 
   90700    304.84838   -1361.4612    441.64705    455.95032    217.24175    37001.621 
   90800    302.52053   -1337.0229    500.05661    528.29259    277.37342    37001.621 
[...]
  984500    284.52881    -1560.426    512.81048    236.44779   -235.48662    37001.621 
  984600    304.21087   -1540.6815    522.17086    354.37675   -722.47795    37001.621 
  984700    302.69012   -1582.6006     536.1938    319.61751    -256.9448    37001.621 
  984800    290.40741   -1518.7059     508.4922    300.37942    -731.2939    37001.621 
  984900    297.05089   -1547.5739    515.80961    308.81044   -732.26382    37001.621 
  985000     292.9392   -1518.4645     518.2434    321.79778   -57.626371    37001.621 
  985100    308.16802   -1525.4602    518.33639    383.62193   -104.30949    37001.621 
  985200    290.60094   -1479.8094    495.70557    327.36269    375.98456    37001.621 
  985300    306.35139   -1504.6772    536.01952    413.88975   -97.292047    37001.621 
  985400    303.97769   -1517.7547    487.30386    341.38414    418.06549    37001.621 
  985500    292.50367   -1517.8462    519.94494    322.15213   -547.14559    37001.621 
  985600    300.53278   -1490.9543    512.25906    377.59307    496.04394    37001.621 
  985700    291.52608   -1538.8067    500.64829    277.48319     196.9151    37001.621 
  985800    300.02559   -1578.9066    528.25849     303.3513    436.50969    37001.621 
  985900    299.81407   -1515.4424    506.32074    343.92315    409.53364    37001.621 
  986000    306.15105   -1534.0673    518.68481    366.26083    485.78678    37001.621 
  986100     308.9091   -1464.6144    554.74051     484.2163    880.16531    37001.621 
  986200    296.91037   -1483.1396     498.2358    355.03675    946.60136    37001.621 
  986300    306.32755   -1540.6977    506.39968    348.14181    225.89007    37001.621 
  986400    289.60125   -1483.7829    525.53045    348.70246    199.18147    37001.621 
  986500    298.62694    -1524.901    518.87596    341.66233    190.30271    37001.621 
  986600    292.57352   -1548.8397    503.62074    275.14967   -577.56326    37001.621 
  986700    312.95115   -1536.0856    495.38256    371.62872   -578.21325    37001.621 
  986800    287.81092   -1546.4799    512.85052    265.24584   -556.27388    37001.621 
  986900    300.57345    -1524.411    494.53813    326.59899   -349.49496    37001.621 
  987000    295.19725   -1479.4123    508.71562    361.51267   -276.28564    37001.621 
  987100    301.19209   -1502.9192    526.66387     383.0084     54.70052    37001.621 
  987200    308.19081   -1497.2179    502.90727      396.538     433.2647    37001.621 
  987300    303.37226   -1487.2405     526.4112    408.27342   -166.58961    37001.621 
  987400    300.95799   -1487.6173    506.81977    377.40973     100.0559    37001.621 
  987500    291.18175   -1486.6268    528.85902    356.31988   -279.13332    37001.621 
  987600    303.59983   -1528.7094    499.54071    340.96103    136.72653    37001.621 
  987700    301.09209   -1544.9726    515.30406    329.14398    369.86704    37001.621 
  987800     301.6079   -1578.3466    504.31216    287.10589    525.62779    37001.621 
  987900    300.18797   -1525.9817    507.12651    335.87707    136.03636    37001.621 
  988000    306.62623   -1481.1017     517.9135    420.59949   -58.449239    37001.621 
  988100    299.30543   -1502.8663     498.4626    346.34568   -646.77016    37001.621 
  988200    301.19517    -1499.614    508.71944    368.38314   -700.92892    37001.621 
  988300    304.12026   -1484.2861    501.33585     389.5282   -225.00307    37001.621 
  988400    302.88482   -1481.0965     513.9385    399.74503    2.7523481    37001.621 
  988500    295.05815   -1524.2768    497.15082    304.45566    370.55649    37001.621 
  988600    307.87746   -1504.0334    498.44003    383.84111   -49.407058    37001.621 
  988700    295.86785   -1493.7158    512.85198    354.37191    328.07448    37001.621 
  988800     298.8678   -1451.2943    507.68392    405.16403    382.59994    37001.621 
  988900    289.60775   -1472.4364     514.8348    349.38269    578.86232    37001.621 
  989000    301.72065   -1483.1832    518.62994    397.09586    195.44913    37001.621 
  989100    298.09977   -1475.3269    504.74739    374.72883    934.51284    37001.621 
  989200    308.91519   -1439.0841    546.88424    501.91783    459.05127    37001.621 
  989300    304.57789   -1467.5928    505.44673    412.39763   -136.19695    37001.621 
  989400    305.50647   -1479.9399    528.24885    427.04329    390.60239    37001.621 
  989500    309.60586   -1535.5476    492.27171    353.95877      445.573    37001.621 
  989600    300.17639   -1553.9215    507.20102    307.95954    546.68791    37001.621 
  989700    307.60794   -1553.3056    480.46761    315.38017    713.60512    37001.621 
  989800     304.8259   -1551.5175    493.33137    317.47686    482.49586    37001.621 
  989900    296.46988   -1534.5118    520.77612    324.21703    153.46826    37001.621 
  990000    284.47156   -1489.1478    503.64454    298.30161    35.113363    37001.621 
  990100    305.56866   -1513.6965    519.10194    384.42041    264.57391    37001.621 
  990200    294.33956   -1483.5457    520.15623    364.94923    333.40613    37001.621 
  990300    298.25784   -1455.5125    504.29097     394.8001    93.003398    37001.621 
  990400     289.8518   -1531.6837    508.62079     285.0228   -330.30048    37001.621 
  990500    302.91836   -1541.4678    483.53757    309.12414   -160.31597    37001.621 
  990600     295.9499   -1562.8934    512.03782    284.75048    48.308241    37001.621 
  990700    301.93575   -1581.6701    478.61934    259.56911   -236.77405    37001.621 
  990800    297.35486   -1516.2777    506.64412    332.31299    140.18813    37001.621 
  990900    302.98926   -1518.3371    517.08713    366.12432   -478.37649    37001.621 
  991000    302.54166   -1525.5072    487.88637    327.73353    80.037033    37001.621 
  991100    301.90616   -1551.7794    525.44872    336.15566    194.03261    37001.621 
  991200    304.39699   -1571.1873    520.52469    323.06471   -57.756368    37001.621 
  991300    293.01363   -1560.1457    494.72143    256.93049    134.48922    37001.621 
  991400    293.74761   -1537.5207    495.74286    283.88933    367.74413    37001.621 
  991500    297.33585   -1556.2081    513.40563    299.05825   -112.93987    37001.621 
  991600    312.59624   -1546.2765    512.16903    376.62265    567.41919    37001.621 
  991700    298.12548   -1526.4962    535.79273    354.72079    460.84569    37001.621 
  991800    305.59492   -1495.3195    513.86183     397.6758    228.14159    37001.621 
  991900    301.96692   -1524.5491    517.11111    355.32257    22.969209    37001.621 
  992000    306.45936   -1517.6967    513.97884    379.31684    26.344837    37001.621 
  992100    289.26097   -1503.5755    522.53914     324.3829    111.65894    37001.621 
  992200    306.16364   -1473.9847    505.59409    413.30949    508.61869    37001.621 
  992300    299.46565   -1492.5434    508.26805    367.19707    2.6706493    37001.621 
  992400    303.51062   -1529.0066    520.04081    360.76141    80.387159    37001.621 
  992500    302.40916   -1547.6546    499.59496    316.69675    105.47608    37001.621 
  992600    302.59849   -1546.9067    546.23367    364.93773   -119.51435    37001.621 
  992700    299.16297    -1503.543    487.91206    334.47553   -326.78408    37001.621 
  992800    305.08045   -1496.4353    520.73146    401.10789   -44.755983    37001.621 
  992900    303.43358   -1528.9394    498.18522    338.62534   -902.17472    37001.621 
  993000    300.71916   -1507.4539    487.90143    337.57699   -376.43189    37001.621 
  993100    292.04885   -1501.7644    522.36279    338.59922   -317.71301    37001.621 
  993200     287.7135   -1488.2305    515.18825    325.39337   -123.21859    37001.621 
  993300    295.03562   -1493.0553    512.08061    350.50531   -338.71763    37001.621 
  993400    301.82943   -1513.0586     472.1949    321.27633   -409.25735    37001.621 
  993500    302.53973   -1467.6638    515.70222    413.38399    207.29617    37001.621 
  993600    302.40781   -1462.7028    504.37264    406.42009     101.9478    37001.621 
  993700    298.21529    -1509.043    515.73793    352.52452   -323.35865    37001.621 
  993800    294.56114    -1486.104    545.10784    388.34247    24.783021    37001.621 
  993900    306.41049    -1491.859    510.47662    401.43177   -135.53464    37001.621 
  994000    288.87334    -1467.245    529.74479    366.16971   -126.46442    37001.621 
  994100    297.30731   -1467.5695     511.9946    386.15703      98.6066    37001.621 
  994200    294.37528   -1463.0738    531.93115    397.35727    175.20439    37001.621 
  994300    297.37292   -1468.1415    521.05553    394.94214   -161.98974    37001.621 
  994400    296.28731   -1416.5456    502.36772    422.95084    322.99993    37001.621 
  994500    290.27534   -1451.5931    522.13238    380.53635    194.40632    37001.621 
  994600    298.97474   -1422.2984    534.62674    461.58531   -722.78721    37001.621 
  994700    294.03778   -1441.9025    507.66862    392.74284    -780.8567    37001.621 
  994800    297.36805    -1443.683    513.47403    411.79707    -526.3893    37001.621 
  994900    298.11653   -1442.1486    503.37914    406.61441   -458.59915    37001.621 
  995000    302.09955   -1450.5006    507.15007    420.00859   -101.68989    37001.621 
  995100    301.79046   -1464.6984    519.19758    416.46338    164.00972    37001.621 
  995200    301.32629   -1431.3271    534.14983    462.69211    154.18309    37001.621 
  995300    305.91847   -1453.4008    490.44648    417.63936    758.31148    37001.621 
  995400    302.88139   -1461.5497    526.65868    431.99642    1042.4576    37001.621 
  995500    297.32717   -1425.2996    548.84412    465.36605    701.80256    37001.621 
  995600    300.61114   -1433.0939    520.26156    443.80964    857.18716    37001.621 
  995700     305.6208   -1418.4456    521.39849    482.20318     655.7724    37001.621 
  995800    291.74877   -1474.0768    520.52174    363.09148     311.8672    37001.621 
  995900     294.0336   -1488.5525    512.67182    351.07716   -195.58854    37001.621 
  996000    299.49192    -1484.778    499.18271    365.99564   -201.10669    37001.621 
  996100    303.22116   -1484.8421    477.99508    361.57377   -152.16438    37001.621 
  996200     299.9875    -1468.908    492.61944    377.53901   -203.99992    37001.621 
  996300     296.4011   -1504.5984    516.26948    349.31337   -456.50374    37001.621 
  996400    297.59528   -1446.4791     473.3697    369.92218     -565.276    37001.621 
  996500    297.25518   -1526.3401    468.88522    284.04178   -646.59692    37001.621 
  996600    299.25898   -1476.8244    501.91577    375.63116   -402.90098    37001.621 
  996700    298.09809   -1475.0239    487.00158     357.2784    -346.8718    37001.621 
  996800    299.00102   -1463.1565    498.26958    384.48865   -735.06414    37001.621 
  996900    305.55625   -1426.0623    519.32651    472.22316   -904.98991    37001.621 
  997000    297.97516   -1435.8329    495.45557    404.36856   -730.30173    37001.621 
  997100    295.28999   -1475.4472    519.81025    376.99093    -679.3181    37001.621 
  997200    294.57116   -1482.5144    503.09581    349.96531   -417.58979    37001.621 
  997300    290.24043   -1468.9677    500.61599    341.48776    -559.8025    37001.621 
  997400    307.27132   -1454.3654    499.58134    431.91494   -44.485653    37001.621 
  997500    304.92467   -1458.5449    475.15836    392.72219   -18.550885    37001.621 
  997600    290.70264   -1466.2635    514.34482     360.0068    32.136116    37001.621 
  997700    297.54234   -1438.2621     500.9068     405.4374    623.25621    37001.621 
  997800    308.07456   -1495.7711    519.27205    413.82495    405.65364    37001.621 
  997900     291.2448   -1447.2407    524.30375     391.4352    791.26185    37001.621 
  998000    307.06806   -1479.8267     507.0537    413.00874    515.72423    37001.621 
  998100    286.51415   -1496.4249     460.7048    257.30285    166.67432    37001.621 
  998200    304.04799   -1456.8595    520.26609    435.55889   -742.88671    37001.621 
  998300    304.64152   -1461.7531     500.3239    413.40166    134.44408    37001.621 
  998400    292.37287    -1441.002     489.6341    368.09524   -113.88748    37001.621 
  998500    286.63121   -1434.2291    506.13735    365.45956   -362.02075    37001.621 
  998600    296.43993   -1441.0049    501.07433    397.88694     58.16633    37001.621 
  998700    287.64038   -1462.2992    486.39932    322.20578   -182.48326    37001.621 
  998800    312.52752   -1484.9972    484.63489    410.05759   -305.16902    37001.621 
  998900    298.75839   -1476.9151    469.10778     340.4733   -47.750316    37001.621 
  999000    300.93967   -1506.7534    475.97618    327.34738   -4.1623329    37001.621 
  999100    302.78766   -1435.2747    548.15929    479.34908    713.83998    37001.621 
  999200    302.58465   -1404.2799    493.28018    454.54861   -29.859207    37001.621 
  999300    303.51114   -1447.3597    484.71586    407.08564    204.07001    37001.621 
  999400    301.45564   -1444.3576    517.89981    433.99536    1.0716084    37001.621 
  999500    304.71123   -1489.2584    454.50894    340.39596   -541.98229    37001.621 
  999600    297.80301   -1483.0644    491.96273    352.86736   -650.57164    37001.621 
  999700    308.82608   -1478.5619    506.30759    421.46126    -721.9403    37001.621 
  999800    309.07445   -1471.7672    469.74327    392.81251   -460.13428    37001.621 
  999900    303.84727   -1486.8843     474.5746    358.93674   -455.37689    37001.621 
 1000000    304.11713   -1482.4569    510.69367    400.70111   -327.52017    37001.621 
 1000100    298.87977   -1473.2189    505.15781    380.76727     65.00236    37001.621 
 1000200    306.92854   -1464.3235    459.18658    380.01515    596.62508    37001.621 
 1000300    299.19712   -1468.8455     495.9278    377.34283    290.77577    37001.621 
 1000400    304.88871   -1473.8673    493.59297     395.6721    502.84978    37001.621 
 1000500    302.68364   -1477.8754    476.01393    364.13356    17.199591    37001.621 
 1000600    308.53548   -1486.1415    475.36159    381.62423   -104.28735    37001.621 
 1000700    311.50637   -1528.3101    475.06408    352.56556   -52.141004    37001.621 
 1000800    297.99157   -1489.8408    496.38194    351.36115    -43.49512    37001.621 
 1000900     296.6168    -1495.611     473.4627    316.46747   -44.676709    37001.621 
 1001000    295.72072   -1513.8119    480.27239     301.0322    276.55995    37001.621 
 1001100    299.37713   -1508.9277    500.70777    342.85307    258.55828    37001.621 
 1001200    309.09674     -1551.53    473.67827    317.08522   -69.485377    37001.621 
 1001300    305.19592   -1519.8282    464.76853    322.27317   -221.31813    37001.621 
 1001400    302.50632   -1515.7844    487.94494    337.35534    371.33413    37001.621 
 1001500    300.00195   -1483.0769    494.79248    365.60833    283.03061    37001.621 
 1001600    295.36755   -1499.4587    475.02157    308.54086    829.72269    37001.621 
 1001700    300.02595   -1487.5888    504.88844    371.30066    779.73586    37001.621 
 1001800    304.55398   -1501.5367    518.91366    391.81278    798.33721    37001.621 
 1001900    304.19742   -1534.7081    481.16325    319.28186    584.76673    37001.621 
 1002000    297.60093   -1507.7819    490.28194    325.55705     204.0861    37001.621 
 1002100    303.47278   -1519.6036    485.22341    335.17618   -277.54432    37001.621 
 1002200    299.78334   -1519.9853    499.42393    332.34479   -499.27286    37001.621 
 1002300    311.67181   -1516.1617    469.17424    359.57073   -196.56387    37001.621 
 1002400    285.71701   -1548.4493    481.25527     222.2315   -313.46136    37001.621 
 1002500    306.14314   -1503.3854     502.9387    381.16087    735.16336    37001.621 
 1002600    292.52347   -1515.0092    518.38075    323.51432    395.92258    37001.621 
 1002700    308.58882   -1497.0222    489.34529    384.96789    101.13572    37001.621 
 1002800    299.80844   -1470.1287    488.89156    371.78229    362.02561    37001.621 
 1002900     305.4792    -1503.298    498.17459    373.48788    366.30199    37001.621 
 1003000    296.78713   -1497.0466    494.29898    336.63681    387.10523    37001.621 
 1003100    298.35864   -1484.3826    489.63876    351.73275    565.62172    37001.621 
 1003200    300.89029   -1525.4612    522.02383    354.46435    196.21423    37001.621 
 1003300    289.30419   -1484.5442    487.89679    308.96691   -92.966127    37001.621 
 1003400    283.95032   -1460.8997    477.86082    298.41369   -243.68966    37001.621 
 1003500    300.15523   -1459.1293    500.24405    395.69928   -125.87105    37001.621 
 1003600    300.45104   -1477.5152    526.27402    404.67822    34.347081    37001.621 
 1003700    300.49225   -1458.9823     513.8452    410.96837     564.8632    37001.621 
 1003800    304.75739   -1466.5092    517.36716    426.21177    149.19241    37001.621 
 1003900    294.26225   -1432.6142    513.07667    408.45222    70.707311    37001.621 
 1004000    300.14782   -1479.5583    523.24503    398.23775    142.32856    37001.621 
 1004100    297.54605   -1462.2259     483.5434    364.12689    28.271079    37001.621 
 1004200    304.16614   -1485.1159    503.48137    391.05097    222.95657    37001.621 
 1004300     299.3147   -1490.5278    499.47787    359.74125   -125.70846    37001.621 
 1004400    302.84541   -1502.6015    479.74271     343.8663    262.89249    37001.621 
 1004500    287.64674   -1494.1463    472.16188    276.14994    774.11526    37001.621 
 1004600    298.16401   -1546.1211    495.80029    295.27744    56.782587    37001.621 
 1004700    305.23832   -1519.1586    491.49288    349.85846   -269.55573    37001.621 
 1004800    296.01399    -1545.314    481.80426    272.38552   -304.93984    37001.621 
 1004900    313.13326   -1524.2287    506.74996    395.67486    251.88907    37001.621 
 1005000    298.49509   -1555.1564    493.90772    285.84372    -240.7651    37001.621 
 1005100    308.32261   -1505.6425    500.69394    386.49485   -100.82806    37001.621 
 1005200    286.71272   -1527.8607    495.56388    261.62228   -160.23862    37001.621 
 1005300    303.55653   -1519.7963    491.32568    341.46376   -51.944493    37001.621 
 1005400    304.49049   -1520.2486    490.00586    343.90647    182.86037    37001.621 
 1005500    298.83188   -1513.3797    503.17946    338.41204   -450.50077    37001.621 
 1005585    303.39897   -1584.4401    479.75736    264.54056    353.04081    37001.621 
Loop time of 590.657 on 32 procs for 1000000 steps with 1515 atoms

Performance: 146.278 ns/day, 0.164 hours/ns, 1693.031 timesteps/s
100.0% CPU use with 32 MPI tasks x no OpenMP threads

MPI task timing breakdown:
Section |  min time  |  avg time  |  max time  |%varavg| %total
---------------------------------------------------------------
Pair    | 240.59     | 274.88     | 328.95     | 120.9 | 46.54
Bond    | 1.3791     | 1.5946     | 1.7628     |   8.0 |  0.27
Neigh   | 38.905     | 38.982     | 39.048     |   0.8 |  6.60
Comm    | 208.51     | 262.71     | 296.78     | 123.3 | 44.48
Output  | 0.38655    | 0.40298    | 0.81341    |  11.6 |  0.07
Modify  | 8.6665     | 8.9845     | 9.4033     |   7.0 |  1.52
Other   |            | 3.103      |            |       |  0.53

Nlocal:        47.3438 ave          72 max          14 min
Histogram: 3 2 0 4 2 4 4 5 4 4
Nghost:        2022.38 ave        2164 max        1875 min
Histogram: 3 5 6 2 0 0 3 3 5 5
Neighs:        5463.19 ave       10409 max         685 min
Histogram: 2 4 2 4 5 4 3 3 3 2

Total # of neighbors = 174822
Ave neighs/atom = 115.39406
Ave special neighs/atom = 2.0356436
Neighbor list builds = 49769
Dangerous builds = 0
The system volume is 37001.6207337405
Lattice vectors
33.3227050538948 0 0
0 33.3227050538948 0
0 0 33.3227050538948
Total wall time: 0:09:55
