LAMMPS data file
 1502 atoms
 1001 bonds
 500 angles
 0 dihedrals
 0 impropers
 4 atom types
 2 bond types
 1 angle types
 0 dihedral types
 1 improper types
 0 15 xlo xhi
 0 15 ylo yhi
 0 15 zlo zhi
 0 0 0 xy xz yz

# Atom types
#
# 1 I_
# 2 H_
# 3 H__HB
# 4 O_3

# Bond Coeffs
#
# 1 I_*H_
# 2 O_3*H__HB

# Angle Coeffs
#
# 1 O_3

# Dihedral Coeffs
#

# Inversion Coeffs
#
# 1 1

 Masses

 1 126.91
 2 1.01
 3 1.01
 4 16

 Atoms # full

1 1 1 0 5.14542131011016 4.08603923831993 2.41217599789181
2 1 2 0 6.10059089468219 5.45622657780609 1.21833976983524
3 2 3 0 14.2306592564285 10.0434668447729 10.0964365038089
4 2 4 0 15.1906592564285 10.0434668447729 10.0964365038089
5 2 3 0 15.4306592564285 9.11346684477292 10.0964365038089
6 3 3 0 9.92740728470497 6.67224444489926 10.705394775141
7 3 4 0 10.887407284705 6.67224444489926 10.705394775141
8 3 3 0 11.127407284705 5.74224444489926 10.705394775141
9 4 3 0 5.36319055521861 12.7600802054536 1.55736387474462
10 4 4 0 6.32319055521861 12.7600802054536 1.55736387474462
11 4 3 0 6.56319055521861 11.8300802054536 1.55736387474462
12 5 3 0 1.64907430342399 13.2051882268302 4.58835868164897
13 5 4 0 2.60907430342399 13.2051882268302 4.58835868164897
14 5 3 0 2.84907430342399 12.2751882268302 4.58835868164897
15 6 3 0 7.42220045926049 9.26869541796856 7.06317461561412
16 6 4 0 8.38220045926049 9.26869541796856 7.06317461561412
17 6 3 0 8.62220045926049 8.33869541796856 7.06317461561412
18 7 3 0 7.92970517344773 8.82101972628385 13.5099288029596
19 7 4 0 8.88970517344773 8.82101972628385 13.5099288029596
20 7 3 0 9.12970517344773 7.89101972628385 13.5099288029596
21 8 3 0 1.56781956830062 6.8432571498584 6.49716059211642
22 8 4 0 2.52781956830062 6.8432571498584 6.49716059211642
23 8 3 0 2.76781956830062 5.9132571498584 6.49716059211642
24 9 3 0 6.85038499577902 0.855604857616127 14.2890234128572
25 9 4 0 7.81038499577902 0.855604857616127 14.2890234128572
26 9 3 0 8.05038499577902 -0.0743951423838735 14.2890234128572
27 10 3 0 6.67968815934844 6.81969164911658 14.4841360731516
28 10 4 0 7.63968815934844 6.81969164911658 14.4841360731516
29 10 3 0 7.87968815934844 5.88969164911658 14.4841360731516
30 11 3 0 4.66551086909138 13.6743368596677 8.40919198351912
31 11 4 0 5.62551086909138 13.6743368596677 8.40919198351912
32 11 3 0 5.86551086909138 12.7443368596677 8.40919198351912
33 12 3 0 8.42385373704135 12.400175623307 13.0665872397367
34 12 4 0 9.38385373704135 12.400175623307 13.0665872397367
35 12 3 0 9.62385373704135 11.470175623307 13.0665872397367
36 13 3 0 5.59878501386382 6.75331927993335 0.165580508764833
37 13 4 0 6.55878501386382 6.75331927993335 0.165580508764833
38 13 3 0 6.79878501386382 5.82331927993335 0.165580508764833
39 14 3 0 6.56518669959158 8.68406817707233 12.8012491611298
40 14 4 0 7.52518669959158 8.68406817707233 12.8012491611298
41 14 3 0 7.76518669959158 7.75406817707233 12.8012491611298
42 15 3 0 8.23780507475138 1.68547328951769 9.22860420425422
43 15 4 0 9.19780507475138 1.68547328951769 9.22860420425422
44 15 3 0 9.43780507475138 0.755473289517686 9.22860420425422
45 16 3 0 10.3943638507929 4.04931545531377 12.6972596137784
46 16 4 0 11.3543638507929 4.04931545531377 12.6972596137784
47 16 3 0 11.5943638507929 3.11931545531377 12.6972596137784
48 17 3 0 7.95082435288467 2.63446296140552 14.9266253609676
49 17 4 0 8.91082435288467 2.63446296140552 14.9266253609676
50 17 3 0 9.15082435288467 1.70446296140552 14.9266253609676
51 18 3 0 1.21298341473565 5.4516834781412 6.14985550520942
52 18 4 0 2.17298341473565 5.4516834781412 6.14985550520942
53 18 3 0 2.41298341473565 4.5216834781412 6.14985550520942
54 19 3 0 0.628245550179854 14.8470093663223 9.82904380769469
55 19 4 0 1.58824555017985 14.8470093663223 9.82904380769469
56 19 3 0 1.82824555017985 13.9170093663223 9.82904380769469
57 20 3 0 1.04067181513645 5.7489110871125 7.61415377492085
58 20 4 0 2.00067181513645 5.7489110871125 7.61415377492085
59 20 3 0 2.24067181513645 4.8189110871125 7.61415377492085
60 21 3 0 8.51885737429373 9.1714902808331 10.4936503793579
61 21 4 0 9.47885737429373 9.1714902808331 10.4936503793579
62 21 3 0 9.71885737429373 8.2414902808331 10.4936503793579
63 22 3 0 11.8157395189349 13.0329495532811 8.66529188118875
64 22 4 0 12.7757395189349 13.0329495532811 8.66529188118875
65 22 3 0 13.0157395189349 12.1029495532811 8.66529188118875
66 23 3 0 5.7054938880913 14.5132433964778 5.851840992691
67 23 4 0 6.6654938880913 14.5132433964778 5.851840992691
68 23 3 0 6.9054938880913 13.5832433964778 5.851840992691
69 24 3 0 0.496995912836865 1.19447072659619 11.6592228692025
70 24 4 0 1.45699591283686 1.19447072659619 11.6592228692025
71 24 3 0 1.69699591283686 0.264470726596191 11.6592228692025
72 25 3 0 2.20334697791375 6.5288432586845 9.40227880259044
73 25 4 0 3.16334697791375 6.5288432586845 9.40227880259044
74 25 3 0 3.40334697791375 5.5988432586845 9.40227880259044
75 26 3 0 10.4871679299697 7.33038676710799 1.65417644893751
76 26 4 0 11.4471679299697 7.33038676710799 1.65417644893751
77 26 3 0 11.6871679299697 6.40038676710799 1.65417644893751
78 27 3 0 6.56319798479788 5.61326801934279 8.25050689978525
79 27 4 0 7.52319798479788 5.61326801934279 8.25050689978525
80 27 3 0 7.76319798479788 4.68326801934279 8.25050689978525
81 28 3 0 3.30364886133 4.34541665524244 5.35399113432504
82 28 4 0 4.26364886133 4.34541665524244 5.35399113432504
83 28 3 0 4.50364886133 3.41541665524244 5.35399113432504
84 29 3 0 3.9397911149729 1.2799699038174 7.15882588061504
85 29 4 0 4.8997911149729 1.2799699038174 7.15882588061504
86 29 3 0 5.1397911149729 0.3499699038174 7.15882588061504
87 30 3 0 1.38729361278936 6.14506854949519 2.11646587005816
88 30 4 0 2.34729361278936 6.14506854949519 2.11646587005816
89 30 3 0 2.58729361278936 5.21506854949519 2.11646587005816
90 31 3 0 0.0642029957100749 14.9873485315498 13.7299732945394
91 31 4 0 1.02420299571007 14.9873485315498 13.7299732945394
92 31 3 0 1.26420299571007 14.0573485315498 13.7299732945394
93 32 3 0 10.4123439516127 10.4154355630185 8.82607082370669
94 32 4 0 11.3723439516127 10.4154355630185 8.82607082370669
95 32 3 0 11.6123439516127 9.48543556301855 8.82607082370669
96 33 3 0 4.08126688373275 2.59832048480399 14.8552615439985
97 33 4 0 5.04126688373275 2.59832048480399 14.8552615439985
98 33 3 0 5.28126688373275 1.66832048480399 14.8552615439985
99 34 3 0 1.25774826432578 9.09830719622783 12.6720171910711
100 34 4 0 2.21774826432578 9.09830719622783 12.6720171910711
101 34 3 0 2.45774826432578 8.16830719622783 12.6720171910711
102 35 3 0 1.13298540629447 7.42891140788794 4.27721656160429
103 35 4 0 2.09298540629447 7.42891140788794 4.27721656160429
104 35 3 0 2.33298540629447 6.49891140788794 4.27721656160429
105 36 3 0 0.0550939764082432 0.641984892254695 1.46690581343137
106 36 4 0 1.01509397640824 0.641984892254695 1.46690581343137
107 36 3 0 1.25509397640824 -0.288015107745305 1.46690581343137
108 37 3 0 1.53728991441429 6.46966415498406 7.00593825546093
109 37 4 0 2.49728991441429 6.46966415498406 7.00593825546093
110 37 3 0 2.73728991441429 5.53966415498406 7.00593825546093
111 38 3 0 12.7953858200647 14.4116159986611 9.17531361454166
112 38 4 0 13.7553858200647 14.4116159986611 9.17531361454166
113 38 3 0 13.9953858200647 13.4816159986611 9.17531361454166
114 39 3 0 7.38685437172651 10.9072728412598 2.92174344649538
115 39 4 0 8.34685437172651 10.9072728412598 2.92174344649538
116 39 3 0 8.58685437172651 9.97727284125984 2.92174344649538
117 40 3 0 9.42585810829885 13.7234476212785 13.4850092162378
118 40 4 0 10.3858581082989 13.7234476212785 13.4850092162378
119 40 3 0 10.6258581082989 12.7934476212785 13.4850092162378
120 41 3 0 1.42480658294633 6.85017180087976 9.21731573995203
121 41 4 0 2.38480658294633 6.85017180087976 9.21731573995203
122 41 3 0 2.62480658294633 5.92017180087976 9.21731573995203
123 42 3 0 -0.674805521992967 11.9732560943253 8.64670325769112
124 42 4 0 0.285194478007033 11.9732560943253 8.64670325769112
125 42 3 0 0.525194478007033 11.0432560943253 8.64670325769112
126 43 3 0 5.99238734386861 9.91760113084689 0.471167924115434
127 43 4 0 6.95238734386861 9.91760113084689 0.471167924115434
128 43 3 0 7.19238734386861 8.98760113084689 0.471167924115434
129 44 3 0 4.82151647840627 12.6580379523244 11.9628239760641
130 44 4 0 5.78151647840627 12.6580379523244 11.9628239760641
131 44 3 0 6.02151647840627 11.7280379523244 11.9628239760641
132 45 3 0 8.57178553400561 14.8184315154236 0.0773236469831318
133 45 4 0 9.53178553400561 14.8184315154236 0.0773236469831318
134 45 3 0 9.77178553400561 13.8884315154236 0.0773236469831318
135 46 3 0 0.196445266921073 4.09890454419889 4.47307065012865
136 46 4 0 1.15644526692107 4.09890454419889 4.47307065012865
137 46 3 0 1.39644526692107 3.16890454419889 4.47307065012865
138 47 3 0 8.47909784104675 1.78010442102328 14.9119641480502
139 47 4 0 9.43909784104675 1.78010442102328 14.9119641480502
140 47 3 0 9.67909784104675 0.850104421023279 14.9119641480502
141 48 3 0 3.00211058274843 3.43842031475157 4.06026454176754
142 48 4 0 3.96211058274843 3.43842031475157 4.06026454176754
143 48 3 0 4.20211058274843 2.50842031475157 4.06026454176754
144 49 3 0 7.11802293241024 12.8719709398597 8.05164221674204
145 49 4 0 8.07802293241024 12.8719709398597 8.05164221674204
146 49 3 0 8.31802293241024 11.9419709398597 8.05164221674204
147 50 3 0 7.29650697598234 9.88031234516762 10.0198005291168
148 50 4 0 8.25650697598234 9.88031234516762 10.0198005291168
149 50 3 0 8.49650697598234 8.95031234516762 10.0198005291168
150 51 3 0 9.83722446762957 8.08935128309764 7.62281008413993
151 51 4 0 10.7972244676296 8.08935128309764 7.62281008413993
152 51 3 0 11.0372244676296 7.15935128309764 7.62281008413993
153 52 3 0 12.9945169568248 9.56641537993215 5.86985624860972
154 52 4 0 13.9545169568248 9.56641537993215 5.86985624860972
155 52 3 0 14.1945169568248 8.63641537993215 5.86985624860972
156 53 3 0 1.30687398414128 13.7158746939991 3.02492682938464
157 53 4 0 2.26687398414128 13.7158746939991 3.02492682938464
158 53 3 0 2.50687398414128 12.7858746939991 3.02492682938464
159 54 3 0 4.95887751851231 5.10403028730303 3.90023786458187
160 54 4 0 5.91887751851231 5.10403028730303 3.90023786458187
161 54 3 0 6.15887751851231 4.17403028730303 3.90023786458187
162 55 3 0 13.1375612974819 0.90771774453111 6.26697310013697
163 55 4 0 14.0975612974819 0.90771774453111 6.26697310013697
164 55 3 0 14.3375612974819 -0.0222822554688901 6.26697310013697
165 56 3 0 9.26513716855086 14.1990704291407 10.0241700117476
166 56 4 0 10.2251371685509 14.1990704291407 10.0241700117476
167 56 3 0 10.4651371685509 13.2690704291407 10.0241700117476
168 57 3 0 0.156491944072768 9.79050849838182 8.7999158387538
169 57 4 0 1.11649194407277 9.79050849838182 8.7999158387538
170 57 3 0 1.35649194407277 8.86050849838182 8.7999158387538
171 58 3 0 6.27953032890335 12.3734302694816 4.32314782985486
172 58 4 0 7.23953032890335 12.3734302694816 4.32314782985486
173 58 3 0 7.47953032890335 11.4434302694816 4.32314782985486
174 59 3 0 13.9939549429994 13.1249577742442 1.35311885853298
175 59 4 0 14.9539549429994 13.1249577742442 1.35311885853298
176 59 3 0 15.1939549429994 12.1949577742442 1.35311885853298
177 60 3 0 13.5367789752502 2.04000278417021 8.05744002806023
178 60 4 0 14.4967789752502 2.04000278417021 8.05744002806023
179 60 3 0 14.7367789752502 1.11000278417021 8.05744002806023
180 61 3 0 3.22648751942441 0.434550219625235 0.831642646808177
181 61 4 0 4.18648751942441 0.434550219625235 0.831642646808177
182 61 3 0 4.42648751942441 -0.495449780374765 0.831642646808177
183 62 3 0 1.07927448858507 9.24188397632912 7.76117686531506
184 62 4 0 2.03927448858507 9.24188397632912 7.76117686531506
185 62 3 0 2.27927448858507 8.31188397632912 7.76117686531506
186 63 3 0 8.11012364502065 14.3340526013076 2.56842630333267
187 63 4 0 9.07012364502065 14.3340526013076 2.56842630333267
188 63 3 0 9.31012364502065 13.4040526013076 2.56842630333267
189 64 3 0 4.04211516419426 5.811062333351 1.93127381033264
190 64 4 0 5.00211516419426 5.811062333351 1.93127381033264
191 64 3 0 5.24211516419426 4.881062333351 1.93127381033264
192 65 3 0 13.7389673273731 6.25787970068864 1.07366233016364
193 65 4 0 14.6989673273731 6.25787970068864 1.07366233016364
194 65 3 0 14.9389673273731 5.32787970068865 1.07366233016364
195 66 3 0 10.5855032899138 4.90138948004693 13.9938923134468
196 66 4 0 11.5455032899138 4.90138948004693 13.9938923134468
197 66 3 0 11.7855032899138 3.97138948004693 13.9938923134468
198 67 3 0 8.58375781841576 3.90174863784574 5.10532456333749
199 67 4 0 9.54375781841576 3.90174863784574 5.10532456333749
200 67 3 0 9.78375781841576 2.97174863784574 5.10532456333749
201 68 3 0 10.139504872933 10.032278813133 3.44279189826921
202 68 4 0 11.099504872933 10.032278813133 3.44279189826921
203 68 3 0 11.339504872933 9.10227881313302 3.44279189826921
204 69 3 0 7.79300204638392 4.50794723391533 4.03927379404195
205 69 4 0 8.75300204638392 4.50794723391533 4.03927379404195
206 69 3 0 8.99300204638392 3.57794723391533 4.03927379404195
207 70 3 0 11.6439817885123 9.85502046573907 10.745994199533
208 70 4 0 12.6039817885123 9.85502046573907 10.745994199533
209 70 3 0 12.8439817885123 8.92502046573907 10.745994199533
210 71 3 0 -0.315075650140643 7.20619280979969 8.71330867870711
211 71 4 0 0.644924349859357 7.20619280979969 8.71330867870711
212 71 3 0 0.884924349859357 6.27619280979969 8.71330867870711
213 72 3 0 4.20524861823767 13.1053441941645 8.61700408277102
214 72 4 0 5.16524861823767 13.1053441941645 8.61700408277102
215 72 3 0 5.40524861823767 12.1753441941645 8.61700408277102
216 73 3 0 3.15864734628238 6.25378706184216 11.7732871428598
217 73 4 0 4.11864734628238 6.25378706184216 11.7732871428598
218 73 3 0 4.35864734628238 5.32378706184216 11.7732871428598
219 74 3 0 14.2154275153019 2.17521817930043 1.87150381039828
220 74 4 0 15.1754275153019 2.17521817930043 1.87150381039828
221 74 3 0 15.4154275153019 1.24521817930043 1.87150381039828
222 75 3 0 0.825551513554528 10.5897630347777 2.61178654851392
223 75 4 0 1.78555151355453 10.5897630347777 2.61178654851392
224 75 3 0 2.02555151355453 9.65976303477772 2.61178654851392
225 76 3 0 -0.0945536310598254 8.06966158835217 6.56272814841941
226 76 4 0 0.865446368940175 8.06966158835217 6.56272814841941
227 76 3 0 1.10544636894017 7.13966158835217 6.56272814841941
228 77 3 0 8.08925786099397 1.62000610301271 9.58904739352874
229 77 4 0 9.04925786099397 1.62000610301271 9.58904739352874
230 77 3 0 9.28925786099397 0.690006103012711 9.58904739352874
231 78 3 0 11.5092479721364 11.6442628569808 10.2308346878272
232 78 4 0 12.4692479721364 11.6442628569808 10.2308346878272
233 78 3 0 12.7092479721364 10.7142628569808 10.2308346878272
234 79 3 0 9.94464285249822 7.36199012882076 9.13005943992175
235 79 4 0 10.9046428524982 7.36199012882076 9.13005943992175
236 79 3 0 11.1446428524982 6.43199012882076 9.13005943992175
237 80 3 0 8.64556779546663 8.02306697628461 6.31405092892237
238 80 4 0 9.60556779546663 8.02306697628461 6.31405092892237
239 80 3 0 9.84556779546663 7.09306697628461 6.31405092892237
240 81 3 0 0.64977024259977 10.2494366785418 12.2011375520378
241 81 4 0 1.60977024259977 10.2494366785418 12.2011375520378
242 81 3 0 1.84977024259977 9.31943667854183 12.2011375520378
243 82 3 0 2.48956532726996 7.85008555784821 6.56711436691694
244 82 4 0 3.44956532726996 7.85008555784821 6.56711436691694
245 82 3 0 3.68956532726996 6.92008555784821 6.56711436691694
246 83 3 0 2.39950020957738 10.0481322924048 8.29788670758717
247 83 4 0 3.35950020957738 10.0481322924048 8.29788670758717
248 83 3 0 3.59950020957738 9.11813229240477 8.29788670758717
249 84 3 0 0.0503391008544714 2.30429268832318 4.54004022292793
250 84 4 0 1.01033910085447 2.30429268832318 4.54004022292793
251 84 3 0 1.25033910085447 1.37429268832318 4.54004022292793
252 85 3 0 12.5111740424484 12.9805237699207 12.3991560924333
253 85 4 0 13.4711740424484 12.9805237699207 12.3991560924333
254 85 3 0 13.7111740424484 12.0505237699207 12.3991560924333
255 86 3 0 7.83254895170219 4.27690122550353 9.33302258024924
256 86 4 0 8.79254895170219 4.27690122550353 9.33302258024924
257 86 3 0 9.03254895170219 3.34690122550353 9.33302258024924
258 87 3 0 7.30670563571155 3.29640674562193 6.67604925809428
259 87 4 0 8.26670563571155 3.29640674562193 6.67604925809428
260 87 3 0 8.50670563571155 2.36640674562193 6.67604925809428
261 88 3 0 -0.55830354642123 10.7539756413922 6.70282386126928
262 88 4 0 0.40169645357877 10.7539756413922 6.70282386126928
263 88 3 0 0.64169645357877 9.82397564139217 6.70282386126928
264 89 3 0 4.33991904996336 12.4225052752905 12.3874905786943
265 89 4 0 5.29991904996336 12.4225052752905 12.3874905786943
266 89 3 0 5.53991904996336 11.4925052752905 12.3874905786943
267 90 3 0 7.86380769845098 14.2703597274981 12.7731957554352
268 90 4 0 8.82380769845098 14.2703597274981 12.7731957554352
269 90 3 0 9.06380769845098 13.3403597274981 12.7731957554352
270 91 3 0 6.58208018794656 7.24330457317643 8.49967421963811
271 91 4 0 7.54208018794656 7.24330457317643 8.49967421963811
272 91 3 0 7.78208018794656 6.31330457317643 8.49967421963811
273 92 3 0 2.98265723322518 8.39191630640067 11.95321372943
274 92 4 0 3.94265723322518 8.39191630640067 11.95321372943
275 92 3 0 4.18265723322518 7.46191630640067 11.95321372943
276 93 3 0 7.56291865764186 14.3872476512939 4.37980948481709
277 93 4 0 8.52291865764186 14.3872476512939 4.37980948481709
278 93 3 0 8.76291865764186 13.4572476512939 4.37980948481709
279 94 3 0 10.908844672814 1.072836773647 7.19482714659534
280 94 4 0 11.868844672814 1.072836773647 7.19482714659534
281 94 3 0 12.108844672814 0.142836773646995 7.19482714659534
282 95 3 0 3.58149958119728 3.31355045474134 5.04239895497449
283 95 4 0 4.54149958119728 3.31355045474134 5.04239895497449
284 95 3 0 4.78149958119728 2.38355045474134 5.04239895497449
285 96 3 0 2.50753461892717 13.9289350031782 1.55965765938163
286 96 4 0 3.46753461892717 13.9289350031782 1.55965765938163
287 96 3 0 3.70753461892717 12.9989350031782 1.55965765938163
288 97 3 0 1.50474869806319 1.592066446729 0.254217971814796
289 97 4 0 2.46474869806319 1.592066446729 0.254217971814796
290 97 3 0 2.7047486980632 0.662066446729004 0.254217971814796
291 98 3 0 14.1008581376821 10.4349269489199 14.296397420112
292 98 4 0 15.0608581376821 10.4349269489199 14.296397420112
293 98 3 0 15.3008581376821 9.50492694891989 14.296397420112
294 99 3 0 5.96020170531236 5.36327755468897 10.7205078389961
295 99 4 0 6.92020170531236 5.36327755468897 10.7205078389961
296 99 3 0 7.16020170531236 4.43327755468898 10.7205078389961
297 100 3 0 -0.640403806027025 6.50840148370713 6.43848213949241
298 100 4 0 0.319596193972975 6.50840148370713 6.43848213949241
299 100 3 0 0.559596193972975 5.57840148370713 6.43848213949241
300 101 3 0 3.09483046570793 9.09551674890332 1.97955751908012
301 101 4 0 4.05483046570793 9.09551674890332 1.97955751908012
302 101 3 0 4.29483046570793 8.16551674890332 1.97955751908012
303 102 3 0 6.80774654072709 14.6475860957894 1.20294082327746
304 102 4 0 7.76774654072709 14.6475860957894 1.20294082327746
305 102 3 0 8.00774654072709 13.7175860957894 1.20294082327746
306 103 3 0 5.58848227534443 0.452397977178916 5.97873666090891
307 103 4 0 6.54848227534443 0.452397977178916 5.97873666090891
308 103 3 0 6.78848227534443 -0.477602022821084 5.97873666090891
309 104 3 0 10.7691235507093 12.6119018059131 12.1061019413173
310 104 4 0 11.7291235507093 12.6119018059131 12.1061019413173
311 104 3 0 11.9691235507093 11.6819018059131 12.1061019413173
312 105 3 0 8.75128701838665 11.8190645418968 2.61365819955245
313 105 4 0 9.71128701838665 11.8190645418968 2.61365819955245
314 105 3 0 9.95128701838665 10.8890645418968 2.61365819955245
315 106 3 0 5.92269686210901 2.63557176495902 0.354983469005674
316 106 4 0 6.88269686210901 2.63557176495902 0.354983469005674
317 106 3 0 7.12269686210901 1.70557176495902 0.354983469005674
318 107 3 0 14.2358459047694 6.75478620379232 0.0759884517174214
319 107 4 0 15.1958459047694 6.75478620379232 0.0759884517174214
320 107 3 0 15.4358459047694 5.82478620379232 0.0759884517174214
321 108 3 0 0.768869920140132 2.76820304029621 7.89020031807013
322 108 4 0 1.72886992014013 2.76820304029621 7.89020031807013
323 108 3 0 1.96886992014013 1.83820304029621 7.89020031807013
324 109 3 0 7.56879907610826 13.4768795540463 5.9770697937347
325 109 4 0 8.52879907610826 13.4768795540463 5.9770697937347
326 109 3 0 8.76879907610826 12.5468795540463 5.9770697937347
327 110 3 0 7.44339806537144 1.78805338841863 6.87912562745623
328 110 4 0 8.40339806537144 1.78805338841863 6.87912562745623
329 110 3 0 8.64339806537144 0.85805338841863 6.87912562745623
330 111 3 0 11.0197094587795 11.0269500284363 0.437820857623592
331 111 4 0 11.9797094587795 11.0269500284363 0.437820857623592
332 111 3 0 12.2197094587795 10.0969500284363 0.437820857623592
333 112 3 0 4.18911002503708 10.3434822013974 7.970912293531
334 112 4 0 5.14911002503708 10.3434822013974 7.970912293531
335 112 3 0 5.38911002503708 9.41348220139742 7.970912293531
336 113 3 0 13.4817442546785 4.85682357842103 6.63863225025125
337 113 4 0 14.4417442546785 4.85682357842103 6.63863225025125
338 113 3 0 14.6817442546785 3.92682357842103 6.63863225025125
339 114 3 0 6.69320577682927 9.19895364594646 4.77041462087072
340 114 4 0 7.65320577682927 9.19895364594646 4.77041462087072
341 114 3 0 7.89320577682927 8.26895364594646 4.77041462087072
342 115 3 0 5.39747877672315 10.3563879888412 9.80865604360588
343 115 4 0 6.35747877672315 10.3563879888412 9.80865604360588
344 115 3 0 6.59747877672315 9.42638798884116 9.80865604360588
345 116 3 0 11.4053380563576 0.935171379651874 8.41630528564565
346 116 4 0 12.3653380563576 0.935171379651874 8.41630528564565
347 116 3 0 12.6053380563576 0.00517137965187425 8.41630528564565
348 117 3 0 4.48793656934984 12.6043157190457 5.39562272373587
349 117 4 0 5.44793656934984 12.6043157190457 5.39562272373587
350 117 3 0 5.68793656934984 11.6743157190457 5.39562272373587
351 118 3 0 -0.135025842608884 2.73262527346611 6.10399292665534
352 118 4 0 0.824974157391116 2.73262527346611 6.10399292665534
353 118 3 0 1.06497415739112 1.80262527346611 6.10399292665534
354 119 3 0 11.1345909714885 2.95159131096676 14.5139201113489
355 119 4 0 12.0945909714885 2.95159131096676 14.5139201113489
356 119 3 0 12.3345909714885 2.02159131096676 14.5139201113489
357 120 3 0 -0.626337868887931 11.7842919197306 5.97306906944141
358 120 4 0 0.333662131112069 11.7842919197306 5.97306906944141
359 120 3 0 0.573662131112069 10.8542919197306 5.97306906944141
360 121 3 0 5.13047298576683 11.9688502342347 14.6631694911048
361 121 4 0 6.09047298576683 11.9688502342347 14.6631694911048
362 121 3 0 6.33047298576683 11.0388502342347 14.6631694911048
363 122 3 0 8.89043399060145 8.10733013710938 7.85329297184944
364 122 4 0 9.85043399060145 8.10733013710938 7.85329297184944
365 122 3 0 10.0904339906015 7.17733013710938 7.85329297184944
366 123 3 0 2.25359755611978 1.12515068653971 13.3615258871578
367 123 4 0 3.21359755611978 1.12515068653971 13.3615258871578
368 123 3 0 3.45359755611979 0.19515068653971 13.3615258871578
369 124 3 0 6.68382850519381 12.3348704345431 9.55624714144506
370 124 4 0 7.64382850519381 12.3348704345431 9.55624714144506
371 124 3 0 7.88382850519382 11.4048704345431 9.55624714144506
372 125 3 0 7.36075782959349 14.1189559262153 11.4199716551229
373 125 4 0 8.32075782959349 14.1189559262153 11.4199716551229
374 125 3 0 8.56075782959349 13.1889559262153 11.4199716551229
375 126 3 0 6.32939323710278 5.78631703433581 2.51014100038446
376 126 4 0 7.28939323710278 5.78631703433581 2.51014100038446
377 126 3 0 7.52939323710278 4.85631703433581 2.51014100038446
378 127 3 0 0.863960819989443 6.73018632381223 2.77562024071813
379 127 4 0 1.82396081998944 6.73018632381223 2.77562024071813
380 127 3 0 2.06396081998944 5.80018632381223 2.77562024071813
381 128 3 0 11.0293360466324 11.0997970092017 9.99493888230063
382 128 4 0 11.9893360466324 11.0997970092017 9.99493888230063
383 128 3 0 12.2293360466324 10.1697970092017 9.99493888230063
384 129 3 0 5.73541632547975 3.63874034764245 9.60315618664026
385 129 4 0 6.69541632547975 3.63874034764245 9.60315618664026
386 129 3 0 6.93541632547975 2.70874034764245 9.60315618664026
387 130 3 0 1.1199404338561 11.1490587428585 2.63403365621343
388 130 4 0 2.0799404338561 11.1490587428585 2.63403365621343
389 130 3 0 2.3199404338561 10.2190587428585 2.63403365621343
390 131 3 0 6.15132362625562 14.3006437287573 0.0673679541796446
391 131 4 0 7.11132362625562 14.3006437287573 0.0673679541796446
392 131 3 0 7.35132362625562 13.3706437287573 0.0673679541796446
393 132 3 0 1.76158700298518 8.60836044227704 6.17594738141634
394 132 4 0 2.72158700298518 8.60836044227704 6.17594738141634
395 132 3 0 2.96158700298518 7.67836044227704 6.17594738141634
396 133 3 0 -0.471260475022718 11.1435552236531 8.51862414856441
397 133 4 0 0.488739524977282 11.1435552236531 8.51862414856441
398 133 3 0 0.728739524977282 10.2135552236531 8.51862414856441
399 134 3 0 9.38596913052723 5.17647262470797 0.358680289937183
400 134 4 0 10.3459691305272 5.17647262470797 0.358680289937183
401 134 3 0 10.5859691305272 4.24647262470797 0.358680289937183
402 135 3 0 11.0760787529591 2.54428267985582 12.887597278459
403 135 4 0 12.0360787529591 2.54428267985582 12.887597278459
404 135 3 0 12.2760787529591 1.61428267985582 12.887597278459
405 136 3 0 10.084166601738 9.88511075073853 14.471701750299
406 136 4 0 11.044166601738 9.88511075073853 14.471701750299
407 136 3 0 11.284166601738 8.95511075073853 14.471701750299
408 137 3 0 1.44032911324874 6.02876967442222 1.06110718217678
409 137 4 0 2.40032911324874 6.02876967442222 1.06110718217678
410 137 3 0 2.64032911324874 5.09876967442222 1.06110718217678
411 138 3 0 -0.254586343215778 2.5264879203774 2.98695678357035
412 138 4 0 0.705413656784222 2.5264879203774 2.98695678357035
413 138 3 0 0.945413656784222 1.5964879203774 2.98695678357035
414 139 3 0 10.4535728464555 9.53190121025778 4.93936641141772
415 139 4 0 11.4135728464555 9.53190121025778 4.93936641141772
416 139 3 0 11.6535728464555 8.60190121025778 4.93936641141772
417 140 3 0 5.55354279742576 8.96573004004546 6.09565097372979
418 140 4 0 6.51354279742576 8.96573004004546 6.09565097372979
419 140 3 0 6.75354279742576 8.03573004004546 6.09565097372979
420 141 3 0 3.58706293671392 8.1747388482932 7.95618931646459
421 141 4 0 4.54706293671392 8.1747388482932 7.95618931646459
422 141 3 0 4.78706293671392 7.2447388482932 7.95618931646459
423 142 3 0 6.08350810638629 1.74123451154679 10.6066426250618
424 142 4 0 7.04350810638629 1.74123451154679 10.6066426250618
425 142 3 0 7.28350810638629 0.81123451154679 10.6066426250618
426 143 3 0 13.059851377476 13.6612456330936 8.90478528337553
427 143 4 0 14.019851377476 13.6612456330936 8.90478528337553
428 143 3 0 14.259851377476 12.7312456330936 8.90478528337553
429 144 3 0 -0.466559198247269 7.97675895196386 8.79314561840147
430 144 4 0 0.493440801752731 7.97675895196386 8.79314561840147
431 144 3 0 0.733440801752731 7.04675895196386 8.79314561840147
432 145 3 0 6.85604107260704 5.32068890211172 14.4847762375139
433 145 4 0 7.81604107260704 5.32068890211172 14.4847762375139
434 145 3 0 8.05604107260704 4.39068890211172 14.4847762375139
435 146 3 0 9.93841033821925 2.18455259845592 12.8774407343008
436 146 4 0 10.8984103382193 2.18455259845592 12.8774407343008
437 146 3 0 11.1384103382193 1.25455259845592 12.8774407343008
438 147 3 0 3.79379539095797 3.24034537462518 11.4809038687963
439 147 4 0 4.75379539095797 3.24034537462518 11.4809038687963
440 147 3 0 4.99379539095797 2.31034537462518 11.4809038687963
441 148 3 0 0.312625174848363 14.2560857829545 8.34855890250765
442 148 4 0 1.27262517484836 14.2560857829545 8.34855890250765
443 148 3 0 1.51262517484836 13.3260857829545 8.34855890250765
444 149 3 0 1.81092185826972 5.23842692765407 8.35015977267176
445 149 4 0 2.77092185826972 5.23842692765407 8.35015977267176
446 149 3 0 3.01092185826972 4.30842692765407 8.35015977267176
447 150 3 0 7.99387611958198 12.6816095648706 10.4721566336229
448 150 4 0 8.95387611958198 12.6816095648706 10.4721566336229
449 150 3 0 9.19387611958198 11.7516095648706 10.4721566336229
450 151 3 0 3.43006120805629 14.0630976312701 3.40233939816244
451 151 4 0 4.39006120805629 14.0630976312701 3.40233939816244
452 151 3 0 4.63006120805629 13.1330976312701 3.40233939816244
453 152 3 0 12.7082362705562 4.83668201178312 14.2159423953854
454 152 4 0 13.6682362705562 4.83668201178312 14.2159423953854
455 152 3 0 13.9082362705562 3.90668201178312 14.2159423953854
456 153 3 0 12.9528096054867 2.83699001226574 7.55105805932544
457 153 4 0 13.9128096054867 2.83699001226574 7.55105805932544
458 153 3 0 14.1528096054867 1.90699001226574 7.55105805932544
459 154 3 0 -0.129452830441296 1.33223184891045 5.68923343671486
460 154 4 0 0.830547169558704 1.33223184891045 5.68923343671486
461 154 3 0 1.0705471695587 0.402231848910451 5.68923343671486
462 155 3 0 8.71230830482207 2.54061237018555 8.39107325300574
463 155 4 0 9.67230830482207 2.54061237018555 8.39107325300574
464 155 3 0 9.91230830482207 1.61061237018555 8.39107325300574
465 156 3 0 7.0736612314079 7.75226273731329 9.38829392194748
466 156 4 0 8.0336612314079 7.75226273731329 9.38829392194748
467 156 3 0 8.2736612314079 6.82226273731329 9.38829392194748
468 157 3 0 0.852733285138384 2.93111717835069 1.45963270682842
469 157 4 0 1.81273328513838 2.93111717835069 1.45963270682842
470 157 3 0 2.05273328513838 2.00111717835069 1.45963270682842
471 158 3 0 5.05417649910785 8.46846776007675 10.9714708628599
472 158 4 0 6.01417649910785 8.46846776007675 10.9714708628599
473 158 3 0 6.25417649910785 7.53846776007675 10.9714708628599
474 159 3 0 12.0658388226014 7.61613688239828 6.31294206948951
475 159 4 0 13.0258388226014 7.61613688239828 6.31294206948951