LAMMPS (29 Sep 2021 - Update 1)
# Test LAMMPS input file for single DeFDe

# Initialize simulation

clear

units real
atom_style full
boundary p p p
dielectric 1
special_bonds dreiding

bond_style harmonic
angle_style harmonic
dihedral_style harmonic
improper_style umbrella
pair_style hybrid/overlay hbond/dreiding/lj 4 9.0 11.0 90 lj/cut 8.50000

# Read data file
read_data frag5.dat
Reading data file ...
  triclinic box = (0.0000000 0.0000000 0.0000000) to (15.000000 15.000000 15.000000) with tilt (0.0000000 0.0000000 0.0000000)
  2 by 4 by 4 MPI processor grid
  reading atoms ...
  1502 atoms
  scanning bonds ...
  1 = max bonds/atom
  scanning angles ...
  1 = max angles/atom
  reading bonds ...
  1001 bonds
  reading angles ...
  500 angles
Finding 1-2 1-3 1-4 neighbors ...
  special bond factors lj:    0        0        1       
  special bond factors coul:  0        0        1       
     2 = max # of 1-2 neighbors
     1 = max # of 1-3 neighbors
     2 = max # of special neighbors
  special bonds CPU = 0.002 seconds
  read_data CPU = 0.017 seconds

# Dreiding potential information

bond_coeff 1 350 1.68
bond_coeff 2 350 0.98

angle_coeff 1 50 104.51


improper_coeff 1 40 0

pair_coeff 1 1 lj/cut 0.51 4.15
pair_coeff 1 2 lj/cut 0.0880454428122206 3.64132530818108
pair_coeff 1 3 lj/cut 0.00714142842854285 3.64018543483708
pair_coeff 1 4 lj/cut 0.220923063531176 3.7588681807161
pair_coeff 2 2 lj/cut 0.0152 3.195
pair_coeff 2 3 lj/cut 0.0012328828005938 3.19399984345648
pair_coeff 2 4 lj/cut 0.0381397430510485 3.29813538230316
pair_coeff 3 3 lj/cut 1e-04 3.193
pair_coeff 3 4 lj/cut 0.0030935416596516 3.29710294046152
pair_coeff 4 4 lj/cut 0.0957 3.4046
pair_coeff 4 4 hbond/dreiding/lj 3 j 9.50 2.75 4 9.0 11.0 90

neighbor 2 bin
neigh_modify every 2 one 10000

# Gemoetric relaxation
fix 1 all box/relax iso 1.0 vmax 0.001
minimize 1.0e-4 1.0e-6 10000 10000
WARNING: Using 'neigh_modify every 1 delay 0 check yes' setting during minimization (../min.cpp:188)
Neighbor list info ...
  update every 1 steps, delay 0 steps, check yes
  max neighbors/atom: 10000, page size: 100000
  master list distance cutoff = 13
  ghost atom cutoff = 13
  binsize = 6.5, bins = 3 3 3
  3 neighbor lists, perpetual/occasional/extra = 3 0 0
  (1) pair hbond/dreiding/lj, perpetual, skip from (3)
      attributes: full, newton on
      pair build: skip
      stencil: none
      bin: none
  (2) pair lj/cut, perpetual, half/full from (3)
      attributes: half, newton on
      pair build: halffull/newton
      stencil: none
      bin: none
  (3) neighbor class addition, perpetual
      attributes: full, newton on
      pair build: full/bin
      stencil: full/bin/3d
      bin: standard
Per MPI rank memory allocation (min/avg/max) = 9.211 | 9.507 | 9.893 Mbytes
Step Temp E_pair E_mol TotEng Press Volume 
       0            0 1.4245958e+18    185.47775 1.4245958e+18 1.1577159e+20         3375 
    5414            0   -983.40587    17.453637   -965.95223    98.328559    39062.633 
Loop time of 4.77353 on 32 procs for 5414 steps with 1502 atoms

100.0% CPU use with 32 MPI tasks x no OpenMP threads

Minimization stats:
  Stopping criterion = energy tolerance
  Energy initial, next-to-last, final = 
    1.42459580293419e+18  -965.344866785123  -965.431766275183
  Force two-norm initial, final = 3.3924730e+20 103.55619
  Force max component initial, final = 2.2566652e+20 73.536514
  Final line search alpha, max atom move = 1.4699922e-05 0.0010809811
  Iterations, force evaluations = 5414 5419

MPI task timing breakdown:
Section |  min time  |  avg time  |  max time  |%varavg| %total
---------------------------------------------------------------
Pair    | 1.1399     | 2.5052     | 3.9661     |  47.6 | 52.48
Bond    | 0.0064948  | 0.010759   | 0.015959   |   2.4 |  0.23
Neigh   | 0.1004     | 0.10073    | 0.10095    |   0.1 |  2.11
Comm    | 0.34993    | 1.8129     | 3.177      |  56.0 | 37.98
Output  | 0          | 0          | 0          |   0.0 |  0.00
Modify  | 0          | 0          | 0          |   0.0 |  0.00
Other   |            | 0.3439     |            |       |  7.20

Nlocal:        46.9375 ave          67 max          24 min
Histogram: 2 3 2 4 1 5 6 4 2 3
Nghost:        1899.84 ave        1935 max        1868 min
Histogram: 3 4 4 2 5 2 1 8 1 2
Neighs:        4777.81 ave        7200 max        1834 min
Histogram: 1 2 2 6 2 4 8 1 1 5

Total # of neighbors = 152890
Ave neighs/atom = 101.79095
Ave special neighs/atom = 1.9986684
Neighbor list builds = 100
Dangerous builds = 0

# MD simulation
velocity all create 300.0 12345 rot yes dist gaussian
timestep 1.0
fix 2 all nvt temp 300.0 300.0 1

# Compute interaction energy
group WAT molecule <> 2 501
1500 atoms in group WAT
group MOL molecule 1
2 atoms in group MOL

compute w WAT group/group MOL pair yes
fix 3 all ave/time 10 5 100 c_w file outa

# Outputs
thermo 100 # Output thermodynamic data every nth step
#dump mf1 all xyz 10000 mol_*.xyz

# Run
run 1000000
Neighbor list info ...
  update every 2 steps, delay 10 steps, check yes
  max neighbors/atom: 10000, page size: 100000
  master list distance cutoff = 13
  ghost atom cutoff = 13
  binsize = 6.5, bins = 6 6 6
  4 neighbor lists, perpetual/occasional/extra = 3 1 0
  (1) pair hbond/dreiding/lj, perpetual, skip from (4)
      attributes: full, newton on
      pair build: skip
      stencil: none
      bin: none
  (2) pair lj/cut, perpetual, half/full from (4)
      attributes: half, newton on
      pair build: halffull/newton
      stencil: none
      bin: none
  (3) compute group/group, occasional, copy from (2)
      attributes: half, newton on
      pair build: copy
      stencil: none
      bin: none
  (4) neighbor class addition, perpetual
      attributes: full, newton on
      pair build: full/bin
      stencil: full/bin/3d
      bin: standard
Per MPI rank memory allocation (min/avg/max) = 8.060 | 8.098 | 8.359 Mbytes
Step Temp E_pair E_mol TotEng Press Volume 
    5414          300   -983.40587    17.453637    376.30653    1669.0804    39062.633 
    5500    291.60763   -1082.0886    195.70568    418.32677   -266.73694    39062.633 
    5600     315.0243   -1102.0102    155.74547     463.2157    81.247105    39062.633 
    5700    296.13056   -1114.9423    174.30686    384.31064   -95.065762    39062.633 
    5800      298.341   -1087.3886    173.98015    421.42765   -417.78778    39062.633 
    5900    301.96084   -1077.4059    177.78516    451.41119   -464.73988    39062.633 
    6000    303.23031   -1071.2469    175.44104    460.90593   -45.305823    39062.633 
    6100    302.07576    -1074.805    172.22792     448.9691   -50.874308    39062.633 
    6200    296.08706   -1083.1508    172.75365    414.35439    69.685577    39062.633 
    6300    298.30003    -1130.501    193.35682    397.50863    490.68475    39062.633 
    6400    298.28219   -1096.7054    185.88295    423.75046    547.36533    39062.633 
    6500    299.49837    -1121.573    185.80105    404.24242    360.60567    39062.633 
    6600     295.1291   -1070.2924    199.79827    449.97129    489.73741    39062.633 
    6700    303.28461   -1107.2841    183.30204    432.97273   -48.852391    39062.633 
    6800    300.86486   -1086.9498     195.4774    454.65591    474.07485    39062.633 
    6900    294.99188   -1101.7617    183.70237    401.79213    525.55892    39062.633 
    7000    291.14669   -1085.2317    208.05261    425.46823    636.32855    39062.633 
    7100     310.5638   -1081.4392    207.68639    515.77049    709.26557    39062.633 
    7200    296.28295   -1070.8672    203.10575    457.86653    666.39437    39062.633 
    7300    312.49788   -1083.3735    208.23886     523.0421    1247.7036    39062.633 
    7400     281.9235   -1091.6643    208.15744    377.87412    761.56141    39062.633 
    7500    290.03343   -1073.5858    204.57203    428.65254    721.30085    39062.633 
    7600    292.22559    -1109.939    208.63466    406.17018    762.61229    39062.633 
    7700    308.96773   -1094.8472    196.41302      483.948    366.23905    39062.633 
    7800     296.6159   -1067.7295    207.01377    466.40187    389.14831    39062.633 
    7900    300.14609    -1054.046    225.10397    513.97031     535.6387    39062.633 
    8000    299.56224   -1078.4557    212.95354    474.79803    730.29341    39062.633 
    8100    305.27939   -1081.1646    208.30669    493.02192    503.92603    39062.633 
    8200    310.74512   -1151.5673     208.7466    447.51378    635.38034    39062.633 
    8300    293.80802   -1115.2988    218.53978    417.79566    686.18173    39062.633 
    8400    304.12458   -1141.3628    197.31921    416.66939    422.16044    39062.633 
    8500    295.07445   -1171.4683    218.95392    367.70649   -60.393605    39062.633 
    8600    293.20381   -1158.9391    215.09085    368.00298    131.42536    39062.633 
    8700    294.84586   -1155.6253    230.99245    394.56524    293.22261    39062.633 
    8800    299.16467   -1178.1379    194.72171    355.10511     645.9824    39062.633 
    8900    292.63208   -1159.0994    209.21307     359.4069    200.93152    39062.633 
    9000    301.72723   -1112.5472    221.95237     459.3919    44.764563    39062.633 
    9100    294.09815   -1158.1869    218.40226    376.06812    212.54229    39062.633 
    9200    303.73051   -1193.0027    218.53763    384.48475    126.78482    39062.633 
    9300    299.87612   -1208.8757    210.06318    342.89201     823.3557    39062.633 
    9400    301.61892   -1211.0158    219.64528    358.13163    383.91727    39062.633 
    9500    305.35966   -1157.9043    220.45654    428.79117    158.47828    39062.633 
    9600    295.37882   -1135.2994    203.49667    389.77997    214.41011    39062.633 
    9700    288.85472   -1173.1199    219.56973    338.84243    135.15904    39062.633 
    9800    306.62296   -1158.8956     231.4067    444.40231     367.7573    39062.633 
    9900    295.96803   -1157.7479    217.19182    383.66284    241.97232    39062.633 
   10000    299.91481   -1126.9024    232.61031    447.58549    286.91746    39062.633 
   10100    292.33437   -1099.7071    226.50813    434.76225   -202.24672    39062.633 
   10200    291.80961   -1113.4225    233.42076    425.61164   -6.6480723    39062.633 
   10300    296.62155   -1151.0762    217.40942    393.47615   -52.818321    39062.633 
   10400    309.20919   -1139.2527    223.88891    468.09875     137.7852    39062.633 
   10500    290.99996   -1137.7326    222.81586    387.07407   -6.3267814    39062.633 
   10600    304.42051   -1157.8265     228.6977    432.90821    161.06533    39062.633 
   10700    280.67032   -1188.0465    225.92156    293.64909    364.47196    39062.633 
   10800    304.16361   -1164.2315    239.77687    436.43293    615.74297    39062.633 
   10900     300.2672   -1145.4272    238.91465    436.94168    613.67281    39062.633 
   11000    308.03417   -1150.9578    235.68127    462.92868    610.29309    39062.633 
   11100    296.44584   -1129.7218    243.00811    439.64309    812.53509    39062.633 
   11200    292.28852   -1120.3963     237.4577    424.81749    59.787705    39062.633 
   11300    301.48562   -1160.1198    227.75833    416.54429    388.79684    39062.633 
   11400    294.98577   -1166.2801    233.55684    387.10085    238.77257    39062.633 
   11500    301.11436   -1155.2597    240.30563    432.29056    323.93532    39062.633 
   11600     289.6293   -1206.0935     219.8504    309.61512    337.72775    39062.633 
   11700    304.51155   -1137.1185    226.60479    451.93057    258.54313    39062.633 
   11800    300.41596   -1132.4194    243.05177    454.75226    275.32813    39062.633 
   11900    302.92524   -1136.1538    229.24925    448.44229    155.00305    39062.633 
   12000     289.2853   -1119.7196    244.00706    418.60651    151.19929    39062.633 
   12100    305.54909   -1151.6194    238.40692    453.87403    156.40181    39062.633 
   12200    306.65463   -1188.8636    243.69982    426.86909    168.41779    39062.633 
   12300    298.00812   -1171.2009    241.33801    403.48382    270.26624    39062.633 
   12400    309.16842   -1205.7856    232.22291     409.7174    430.16912    39062.633 
   12500    290.25846   -1159.5294    243.49267    382.63643   -130.53895    39062.633 
   12600    293.41663   -1168.7253    247.87338     391.9515    374.04441    39062.633 
   12700    285.91513    -1145.765    249.71658    383.19194      105.836    39062.633 
   12800    293.78576   -1165.8229    239.05524    387.68738    191.87708    39062.633 
   12900    287.24032   -1154.8024    242.51227    372.87936    532.53864    39062.633 
   13000    293.30687   -1137.2575    250.96482    426.01968    369.69882    39062.633 
   13100    307.27609   -1136.7993    252.16076    490.17493    390.02081    39062.633 
   13200    289.14331   -1149.3344    244.89282    389.24222    671.94338    39062.633 
   13300    291.25804   -1123.2737    250.93564    430.80747    209.20119    39062.633 
   13400    298.75597   -1172.3452    247.01272    411.36031    314.94603    39062.633 
   13500    307.14638   -1133.7466    248.62822    489.11467    473.24327    39062.633 
   13600    301.33087   -1129.0788    247.82961     466.9642    69.405466    39062.633 
   13700    297.96165   -1161.7047    267.04971    438.48377   -65.133133    39062.633 
   13800    292.68511   -1166.3777    254.84613    397.99892     440.3362    39062.633 
   13900    298.23812   -1121.6239    256.09243    468.84434    450.23614    39062.633 
   14000    289.42923   -1170.9712    242.79884    366.79067    263.52091    39062.633 
   14100    310.38102     -1180.78    245.00233    452.92781    17.478105    39062.633 
   14200    306.92921   -1123.0933    260.05079    510.21887    569.56619    39062.633 
   14300    296.59986    -1142.401    257.27191    441.91675      170.685    39062.633 
   14400    302.99007   -1120.6636    245.79832    480.77163    285.39269    39062.633 
   14500     297.5365   -1149.0086    261.76163    443.98964   -49.116672    39062.633 
   14600    310.18037   -1134.5144    253.82712    507.12045    689.49178    39062.633 
   14700    307.25369   -1146.1818    271.72308    500.25447    730.27111    39062.633 
   14800    301.19578   -1166.9997    259.31786    439.92708     598.3089    39062.633 
   14900     297.7731   -1102.1084    276.49661     506.6834    336.49366    39062.633 
   15000    292.26783   -1133.2595    280.47806    454.88211    53.722401    39062.633 
   15100     298.6986   -1114.2109    248.40076    470.62588    427.80182    39062.633 
   15200     288.2669   -1136.2145    267.94139    421.48942    562.20812    39062.633 
   15300    300.26292   -1095.9984    266.21637    513.65314    63.300736    39062.633 
   15400    292.75426   -1054.0935    252.79409     508.5405    160.48671    39062.633 
   15500    295.14826   -1063.1081    264.35407    521.79716    442.57211    39062.633 
   15600    286.83341   -1111.7067    270.27088    441.91306    223.70247    39062.633 
   15700    286.72459   -1144.6891    270.03806     408.2109    168.84116    39062.633 
   15800    295.07782   -1116.0775    267.21842    471.37691    190.21178    39062.633 
   15900    300.46486   -1145.9979    249.27109    447.61183    345.34083    39062.633 
   16000    306.57094   -1151.3885    272.43004    492.69994    354.47004    39062.633 
   16100    301.47076   -1176.4887     251.9663    424.31685    68.649636    39062.633 
   16200    302.89529   -1121.2986    274.03034    507.94463   -76.142323    39062.633 
   16300    299.87713   -1134.3446    261.89569    469.26012     117.7036    39062.633 
   16400     304.5579   -1157.0504    269.72572    475.32701    343.41737    39062.633 
   16500    303.68691   -1139.8269     259.4335    478.36129    463.30547    39062.633 
   16600    290.77106   -1126.2631    263.84698    438.55055    557.29213    39062.633 
   16700    298.96218    -1123.448    286.19406    500.36141    736.09962    39062.633 
   16800    297.29496   -1167.0181    258.39251    421.53028    211.50353    39062.633 
   16900    300.59554   -1158.1345    272.61123    459.40005     155.6906    39062.633 
   17000    294.94153   -1164.3474      275.829    431.10783    303.51262    39062.633 
   17100    299.46841   -1125.9302    258.77397    472.72405    608.15957    39062.633 
   17200    301.90422   -1179.1256    273.88005    445.53305    306.26529    39062.633 
   17300    293.86652   -1197.7812    262.51066    379.54582      98.3436    39062.633 
   17400    295.49493   -1176.2129    274.58636     420.4756    214.81873    39062.633 
   17500      303.167   -1165.1518    284.69888    475.97564     43.67562    39062.633 
   17600    299.86047   -1166.3713    260.64791    435.91108    111.68311    39062.633 
   17700    310.77644   -1198.5898     268.1301    460.01495    403.30438    39062.633 
   17800     298.1072   -1156.6368    282.28091    459.43411    28.988072    39062.633 
   17900    299.92255   -1230.0245    261.67843     373.5662      366.631    39062.633 
   18000    299.01984   -1205.3632     271.6069    404.11706    306.20685    39062.633 
   18100    305.62855   -1200.3125    277.64863    444.77814    9.0408475    39062.633 
   18200    307.58355    -1207.022    269.93076    439.09778    406.23991    39062.633 
   18300    291.21573   -1205.7139     273.4376    370.67996    295.86527    39062.633 
   18400    303.14004   -1215.1438    285.84038    427.00451    261.18075    39062.633 
   18500    298.53407   -1180.6567    277.60194    432.64518   -36.313271    39062.633 
   18600    298.39018   -1232.7898    268.40313    370.66948   -92.866319    39062.633 
   18700     301.7042   -1216.9987    273.14515    406.03016     332.7176    39062.633 
   18800    295.31182   -1214.7198    269.77202    376.33521    239.72961    39062.633 
   18900    304.11703   -1221.1535    266.26122    405.78693    165.59109    39062.633 
   19000     305.7603    -1205.465    272.36321     434.9297    346.09885    39062.633 
   19100    295.02169   -1184.0581    287.54156    423.46824    -58.31257    39062.633 
   19200    291.08336   -1174.6474      260.909    388.62562    130.63014    39062.633 
   19300    307.55213   -1225.9642    269.30995    419.39423    492.95995    39062.633 
   19400    291.76151   -1229.8263    274.73935    350.31119    714.26296    39062.633 
   19500    297.72262   -1171.4209    277.98437    438.63277    652.23216    39062.633 
   19600    299.45688     -1180.03    283.50627    443.30498    904.63418    39062.633 
   19700    295.36388    -1197.763      273.354    397.10681     695.0194    39062.633 
   19800     293.8194   -1180.1744    278.28007    412.71121    39.685141    39062.633 
   19900    293.53219   -1173.8965    285.90612    425.33015    538.14195    39062.633 
   20000    293.73317   -1213.9853    265.68926    365.92372   -107.96334    39062.633 
   20100    305.28745   -1190.9852    275.74422    450.67486    383.77139    39062.633 
   20200    303.58154   -1164.4088    276.05164    469.92617     579.0433    39062.633 
   20300    302.00055   -1193.7881    276.56425    433.98576    587.16672    39062.633 
   20400    297.60496   -1161.8132    289.48356    459.21325    219.88784    39062.633 
   20500    304.56121   -1186.0317    286.60026    463.23502    410.84602    39062.633 
   20600    285.28856    -1173.905     302.2181    404.75001    451.49906    39062.633 
   20700    305.51769     -1174.22    306.81171    499.53767    688.53713    39062.633 
   20800    302.54559   -1185.9051    293.10353    460.84662    545.27055    39062.633 
   20900     303.1267   -1176.1543     296.3397    476.43361    273.26643    39062.633 
   21000    303.75891   -1148.1941    289.90856    500.79134    718.00799    39062.633 
   21100    288.15078   -1212.8362    295.66767    372.07456    369.35762    39062.633 
   21200    301.31544   -1214.8864    283.24873    416.50666       89.466    39062.633 
   21300    299.01362    -1175.425    300.07036    462.49087    50.066466    39062.633 
   21400     284.9967   -1186.3168    300.40484    389.21914    194.29051    39062.633 
   21500    292.20513    -1173.729    284.20332    417.85731    146.23591    39062.633 
   21600    309.07679   -1198.4271    307.09585     491.5389    3.5811959    39062.633 
   21700    299.45424   -1184.7038    303.84535    458.95845    392.97346    39062.633 
   21800    296.77115   -1188.6362    301.28232    440.45836    504.61858    39062.633 
   21900    290.12115   -1228.1524    291.08259    360.98903    552.60704    39062.633 
   22000    289.81433   -1224.2441    292.34918    364.79114    389.77558    39062.633 
   22100    307.91306   -1216.7881    303.04408    463.91938    170.05959    39062.633 
   22200    299.57688   -1223.5649    303.88358    420.68436    297.93004    39062.633 
   22300    287.80765   -1222.1766    298.79707     364.3283      575.551    39062.633 
   22400    297.21196   -1207.0749    298.76744      421.477    77.913732    39062.633 
   22500    301.40442   -1200.1577    278.72489    427.10962   -530.20687    39062.633 
   22600    292.84091   -1195.4239    305.27714    420.08081    252.07164    39062.633 
   22700    304.23922   -1197.8524    288.97497    452.34846    191.76851    39062.633 
   22800     309.7782   -1225.8017    291.68725     451.8939     634.4104    39062.633 
   22900    311.00058   -1221.7576    302.09828    471.81818    521.29402    39062.633 
   23000    308.62866   -1210.4776    328.27706    498.66451    561.96361    39062.633 
   23100     300.1291   -1206.8481    326.79569    462.78399    354.87148    39062.633 
   23200    298.76981   -1204.7419    304.93507    436.94788    519.06255    39062.633 
   23300    305.23589   -1218.1767    302.76875    450.27725     851.9789    39062.633 
   23400    303.65622   -1270.4998    303.05589    391.17345    554.04166    39062.633 
   23500    294.53241   -1230.3559    300.32995    387.76972     245.4136    39062.633 
   23600    298.62377   -1212.8345    311.61038    434.87706    247.75799    39062.633 
   23700    289.06891   -1183.0758    316.89292    427.16802    161.00446    39062.633 
   23800    309.66788   -1197.1022     326.6381    515.05063   -117.85179    39062.633 
   23900    283.57105   -1231.0908    298.96751    336.62919   -357.57238    39062.633 
   24000     302.7925   -1231.2932    301.71748    425.17727   -91.110481    39062.633 
   24100    302.71411   -1211.2654    329.61652    472.75332   -38.633328    39062.633 
   24200    305.54438   -1232.7572    311.76283    446.07103    231.51506    39062.633 
   24300    306.73327   -1240.3695     309.6218    441.63702    426.91937    39062.633 
   24400    298.63985   -1200.8106    334.45156    469.81416    461.56126    39062.633 
   24500    307.56096   -1251.1003    294.80859    419.79627    419.42316    39062.633 
   24600    298.47776   -1219.3445    312.10602    428.20951   -93.775607    39062.633 
   24700    302.10697   -1213.1151    308.71752    447.28818    605.45586    39062.633 
   24800    289.10209   -1233.7147    307.21678    367.00144    760.87625    39062.633 
   24900    291.87612   -1235.4989    323.98359     394.3956    793.64752    39062.633 
   25000    302.35585   -1215.4991    306.15141    443.45164    427.89611    39062.633 
   25100    298.41591   -1179.8486    312.99059    468.31321    526.12403    39062.633 
   25200    303.69015   -1219.1185    303.50514    443.15583    111.57616    39062.633 
   25300    306.64853   -1190.6655    309.20434    490.54441    305.52889    39062.633 
   25400     306.1007   -1207.3471    301.36519     463.5726   -178.09692    39062.633 
   25500    296.39884   -1193.3806     313.2355    446.00135    193.23634    39062.633 
   25600    299.38922   -1167.5779    321.86056    493.80867    152.82673    39062.633 
   25700    292.15117   -1204.6492    304.00501    406.49735    115.45339    39062.633 
   25800    298.10506   -1231.3701    315.24021    417.65057    154.46652    39062.633 
   25900    303.81189   -1241.9116    302.78781    420.19011   -108.64788    39062.633 
   26000    319.93822   -1220.9178    310.78475    521.33319   -189.21083    39062.633 
   26100    300.77115   -1205.2188    317.57981    458.07002   -87.348391    39062.633 
   26200    310.39014   -1219.3947    309.18271     478.5343   -180.23152    39062.633 
   26300    295.10657   -1243.9946     302.7759    379.14588   -300.26185    39062.633 
   26400    295.00381   -1230.8496    325.49446    414.54971   -408.40218    39062.633 
   26500     308.9442    -1206.955    298.53369    473.85557    49.408914    39062.633 
   26600    298.10661   -1274.1959     305.7229    365.31441   -577.11756    39062.633 
   26700    302.52861   -1254.6066    322.85702     421.8227    417.35232    39062.633 
   26800    304.38725   -1267.6206     313.6737    407.94129   -248.90948    39062.633 
   26900    303.01434   -1225.9462    307.22657    437.02589    403.74433    39062.633 
   27000    310.53849   -1239.8182    299.30936     448.9012    185.51687    39062.633 
   27100     301.5924   -1246.8223    300.33627    402.89745    21.119316    39062.633 
   27200    301.34959   -1243.1061    304.65724    409.84819   -239.49044    39062.633 
   27300    292.52494   -1249.4193    318.18457    377.57916    317.87472    39062.633 
   27400    294.36791   -1238.2029    311.08946     389.9463   -113.41761    39062.633 
   27500    299.09276   -1272.3179    301.07587    366.95758    520.94309    39062.633 
   27600    301.16348   -1276.2637    321.99154    393.19224    168.56645    39062.633 
   27700    293.26994   -1247.0618     320.7773    385.86263    1067.6535    39062.633 
   27800    291.35861   -1228.9017    309.76402    384.45784    378.85003    39062.633 
   27900    296.56912   -1207.9648    336.51426    455.45777    989.23703    39062.633 
   28000    304.87094      -1272.2    310.67125    402.52353    343.45523    39062.633 
   28100    289.50487   -1267.2778    323.20788    351.23155    43.004629    39062.633 
   28200    301.96111   -1247.1109     305.4445    409.36678   -21.591373    39062.633 
   28300    311.36992   -1232.5759    346.89322    507.44737     312.9441    39062.633 
   28400    306.46743   -1304.1045    320.05519      387.146    171.27187    39062.633 
   28500    300.61898   -1251.1533    297.74612    391.62098    102.01991    39062.633 
   28600    292.99755   -1261.9332     335.4934    384.48863      598.639    39062.633 
   28700    292.33384    -1271.663    326.74818     363.0441    465.58708    39062.633 
   28800    298.05664   -1257.8909    337.41237    413.08525    627.38163    39062.633 
   28900    289.71697   -1278.0935    346.54848    364.70543    347.55575    39062.633 
   29000    300.85317   -1238.8616     306.6532    413.86763    209.58325    39062.633 
   29100    300.61562    -1205.637    325.90223     465.2784   -495.77575    39062.633 
   29200     302.8513    -1233.457    313.81574    435.37485   -466.17103    39062.633 
   29300    295.35015   -1223.2438    334.24428    432.45484   -136.40871    39062.633 
   29400    305.36856   -1232.6952    324.36471    457.94827   -156.99132    39062.633 
   29500    303.75582   -1224.7297    314.08821    448.42149    176.78607    39062.633 
   29600    303.93167   -1195.0187    321.09447    485.92561   -502.15645    39062.633 
   29700    292.30779   -1211.8368    315.92538    411.93089    -402.7119    39062.633 
   29800    300.55716   -1196.4014    332.53584      480.886     -164.692    39062.633 
   29900    305.25018   -1248.3753    348.81131    466.18509    329.36014    39062.633 
   30000    296.02723   -1264.0939    311.32497     371.7149    120.11821    39062.633 
   30100    303.69708    -1245.451    330.23639    443.58566    2.6633508    39062.633 
   30200     296.1671   -1246.2941    332.78747    411.60299    263.25114    39062.633 
   30300    297.78944   -1243.8147    326.26885    414.82242    217.33776    39062.633 
   30400    301.87887   -1208.2504    350.16078    492.57557    434.42787    39062.633 
   30500    293.95634   -1248.2672    350.17562     417.1267    147.73857    39062.633 
   30600    299.84591   -1273.7331    323.75856    391.59476    469.45663    39062.633 
   30700    295.23068   -1250.4236    348.81256    419.30883    349.07988    39062.633 
   30800    294.72714   -1238.8856    329.91645    409.69778    226.95444    39062.633 
   30900    300.00382   -1250.0963    328.85928    421.03887    172.64916    39062.633 
   31000    288.90059   -1228.5838    334.07075    398.08475    318.88985    39062.633 
   31100     296.9121   -1251.1812    318.18442    395.44607    254.76417    39062.633 
   31200    294.14857   -1249.4878    318.30346    384.89401   -340.85914    39062.633 
   31300    303.95387   -1245.5182    330.10087    444.53184   -595.64387    39062.633 
   31400    292.15895   -1240.5354    356.00008    422.64108   -823.86169    39062.633 
   31500    303.25447   -1228.8358    328.79952    456.78367   -538.10517    39062.633 
   31600    300.54451   -1214.8038    340.03716    469.92833    -203.3498    39062.633 
   31700     299.5712   -1216.6219    366.45377    490.17205   -450.37485    39062.633 
   31800    306.86017   -1203.6328    337.28514     506.6049   -120.79724    39062.633 
   31900     301.2305   -1256.3217    341.98544    433.42799   -35.580848    39062.633 
   32000    293.32586    -1215.292    343.04204    440.14737   -193.35273    39062.633 
   32100    301.36904    -1243.479    337.53825    442.44341     575.3629    39062.633 
   32200    302.60106   -1247.2251    369.36344     476.0348   -179.42654    39062.633 
   32300    307.73578   -1223.7215    356.50386    509.65246    328.73754    39062.633 
   32400    293.81234   -1243.7034    353.73195    424.60251     45.13748    39062.633 
   32500    302.91136   -1240.0978    354.97078    470.15773    215.37014    39062.633 
   32600    299.58999   -1248.9459    343.49663    434.97507   -143.52979    39062.633 
   32700    283.05662   -1247.5057     357.9726    376.91768   -185.42646    39062.633 
   32800     298.8566   -1215.6621    358.49743    479.97831   -277.89742    39062.633 
   32900    303.40675   -1253.1498    339.02791    443.37934   -143.31149    39062.633 
   33000    295.83617   -1222.7502    357.12042    457.99913   -79.000014    39062.633 
   33100    302.61975   -1219.4388    373.59028    508.13158    159.66774    39062.633 
   33200    299.73634   -1233.4991    354.25992    461.83988    175.66894    39062.633 
   33300     296.3597   -1236.1804    353.61554    443.40647    141.01045    39062.633 
   33400    292.81748   -1282.4873    348.89772    376.53317    98.532575    39062.633 
   33500      301.272   -1240.2731    372.92214    480.59897    209.39954    39062.633 
   33600    301.11338   -1258.4885    370.44435    459.19616   -59.865226    39062.633 
   33700    296.94331   -1273.0478    352.67447    408.20923    138.40833    39062.633 
   33800    304.84051    -1277.048    353.98597    440.85409    270.44549    39062.633 
   33900    303.01106   -1227.6972    370.74136      498.775   -141.76586    39062.633 
   34000    292.65055   -1275.1237     347.5656    381.81781   -517.52702    39062.633 
   34100    301.81494   -1258.9223    346.61877    438.07565   -268.45247    39062.633 
   34200     306.4233   -1285.5119    351.87525    437.36119    219.86782    39062.633 
   34300    301.32197   -1238.6835      366.536    476.02598    -24.82771    39062.633 
   34400    300.45041   -1298.9766    345.48647    390.78388    64.672615    39062.633 
   34500    300.14145   -1254.5464    364.65801    453.00322   0.58391283    39062.633 
   34600     289.9584   -1274.4792    362.38751    385.23904   -37.068367    39062.633 
   34700    292.23977   -1308.0357    364.83797    364.34026    365.52048    39062.633 
   34800    300.32127   -1262.4167    358.48134    439.76081    162.24249    39062.633 
   34900    295.45022   -1252.7405    354.94567    424.10731    604.65812    39062.633 
   35000    305.63408   -1288.0313    369.36857    448.80402    440.79284    39062.633 
   35100    295.59376   -1279.3992    348.77763    391.92282    620.42285    39062.633 
   35200    309.37993   -1257.2708    365.31751    492.27317    210.92189    39062.633 
   35300    306.48804   -1251.0173    379.23028    499.50051    428.65583    39062.633 
   35400    304.19353   -1265.7339    377.82778    473.11531    125.88941    39062.633 
   35500    293.28594   -1285.7411    382.64878    409.12643   -85.264484    39062.633 
   35600    305.72892   -1255.7359    377.61814    489.77332    189.40618    39062.633 
   35700    300.66656    -1261.917    357.52698    440.85108   -374.10308    39062.633 
   35800    302.26318   -1257.4881    358.13447    453.03102   -110.47948    39062.633 
   35900    296.31799   -1279.8532    359.42948    405.36105   -5.9445078    39062.633 
   36000    302.71619   -1245.5591     354.1044    462.95686    245.35653    39062.633 
   36100    300.74935   -1255.0216     373.6102    464.20012     421.8554    39062.633 
   36200    293.30718   -1238.4168    374.55173    448.44867    640.24468    39062.633 
   36300    302.03621   -1260.0601    366.87762    458.18665    390.00018    39062.633 
   36400     293.1253   -1237.2333    355.88473    430.15146    272.70854    39062.633 
   36500    300.99333   -1266.4572    366.76047     447.0064    593.90334    39062.633 
   36600    312.00351     -1276.19    404.24086    524.01567    431.97243    39062.633 
   36700    304.37521   -1278.7865    375.67929     458.7271    601.11208    39062.633 
   36800    304.55696   -1324.3518    367.44272    405.73842    273.83951    39062.633 
   36900    303.33143   -1312.9095    374.38783    418.64261   -58.115027    39062.633 
   37000    298.21481     -1245.02    409.84621    499.09767    293.96371    39062.633 
   37100    305.99317   -1264.5048     354.9613    459.52991    332.18795    39062.633 
   37200    299.67693   -1253.9669    380.74151    467.58794    33.316427    39062.633 
   37300    309.14155   -1225.0313    359.52473    517.65331   -193.08456    39062.633 
   37400    296.37996   -1283.1856    351.59767    394.47403   -198.87478    39062.633 
   37500    297.19451   -1323.4469    375.47843    381.73795   -257.08966    39062.633 
   37600    306.41584   -1273.9999    384.12877    481.09336   -206.93818    39062.633 
   37700    298.68919   -1249.5852    404.01657    490.82528   -344.08855    39062.633 
   37800    301.84545   -1249.0044    416.58531    518.09655    434.67092    39062.633 
   37900    307.64863   -1250.0894    378.16652    504.55732    156.01747    39062.633 
   38000    304.73092   -1255.4649    411.27825    519.23915   0.61234881    39062.633 
   38100    290.39108   -1299.5831    368.69683    368.38032    17.158052    39062.633 
   38200    308.05995   -1325.7169    357.88706    410.49068   -39.796791    39062.633 
   38300    295.08395   -1289.9427    368.56672    398.88747   -315.84812    39062.633 
   38400    290.61539   -1318.2774    344.88724    326.88003   -418.74517    39062.633 
   38500    306.95283   -1298.7164    359.09562    433.74633   -42.504743    39062.633 
   38600    302.21037   -1317.7716    382.15316     416.5299    89.325621    39062.633 
   38700     301.7832   -1337.2803    362.91255    375.86938    26.685219    39062.633 
   38800     295.1368   -1351.0787    380.97106    350.39225    442.06021    39062.633 
   38900    299.46529   -1367.9092    377.28957    349.24673    484.59081    39062.633 
   39000    307.68457   -1382.4329    375.55347    369.76157    429.18297    39062.633 
   39100    307.44632   -1338.5561    374.12821    411.14714    376.15986    39062.633 
   39200    307.20664   -1335.0517     389.5597    429.01064   -258.96404    39062.633 
   39300    295.03511   -1306.6332      369.482    382.89364   -37.830071    39062.633 
   39400    299.83403   -1329.8786    396.01137    407.64896   -139.16161    39062.633 
   39500    295.17154   -1335.0482    392.81545    378.42253   -571.17675    39062.633 
   39600    313.52781   -1353.1769    407.27638    456.88429   -83.156778    39062.633 
   39700    302.84284   -1334.0196     382.8251    403.78371    113.71894    39062.633 
   39800    307.28077   -1299.3077    392.93806    468.46473    571.83986    39062.633 
   39900    299.47993   -1272.6894    377.31853    444.56099   -141.19165    39062.633 
   40000    309.85121   -1295.4296    367.25649    458.16189   -180.41659    39062.633 
   40100    297.03339   -1304.6927      393.703    417.99585    -326.8331    39062.633 
   40200    287.11872   -1304.5274    396.92726    377.02526    156.11457    39062.633 
   40300    291.91633   -1314.8474    390.53341    381.77692   -235.42296    39062.633 
   40400    292.55124   -1263.6232    387.47225    432.78063    -14.42946    39062.633 
   40500    299.86113   -1251.2616    368.80225    459.17807   -74.224385    39062.633 
   40600    297.69575   -1271.5043    363.73897    424.18375   -322.21525    39062.633 
   40700    304.05826   -1302.8647    394.20162    451.75312    -72.25489    39062.633 
   40800    307.17273   -1276.4923    399.73398    497.59265    388.28758    39062.633 
   40900     298.1798   -1273.0497    405.96648    467.03158   -52.141279    39062.633 
   41000    308.42493    -1299.797    395.54703    475.70355   -304.11497    39062.633 
   41100    307.25438   -1316.0141     388.4549    447.15702   -131.35762    39062.633 
   41200    303.78988   -1317.4403     380.6364    422.41154    -119.3018    39062.633 
   41300     304.4524   -1306.8542    371.44408    426.76957   -90.035077    39062.633 
   41400    304.13584   -1319.9085    384.75954    425.61434    340.99494    39062.633 
   41500    297.14638   -1299.2014    367.95289    398.24261   -93.764427    39062.633 
   41600    306.54091   -1327.7352    361.44785    405.23672   -39.988483    39062.633 
   41700    301.28922   -1362.6593    366.91741    352.28505    522.05794    39062.633 
   41800    296.98027     -1354.91    376.26088    350.09878    923.62147    39062.633 
   41900    297.98504   -1287.8231    408.53183    453.95217     709.0865    39062.633 
   42000    297.03542   -1315.2748    370.15727    383.87712    430.88418    39062.633 
   42100    303.30605   -1343.5806    405.02424     418.4943    700.78965    39062.633 
   42200    301.33551   -1321.8749     387.1755    413.53472    709.05267    39062.633 
   42300    297.46403   -1300.3036    391.78329      422.392    729.25622    39062.633 
   42400    305.85514   -1311.4092    383.49083     440.5374     81.97656    39062.633 
   42500    308.55551   -1306.8623    384.07212    457.74758    68.980029    39062.633 
   42600    293.91348    -1303.103    380.01735     391.9408   -32.210874    39062.633 
   42700    300.80712   -1293.8114    385.92956    437.98816   -278.09379    39062.633 
   42800    291.74843   -1305.7878    398.27324    397.82506   -396.08938    39062.633 
   42900    292.80545   -1284.7988    389.37841    414.64851   -171.40771    39062.633 
   43000    301.67113   -1281.8371    389.01134    456.90997   -723.17658    39062.633 
   43100    300.78242   -1316.3123    372.26818    401.71534   -241.46672    39062.633 
   43200    298.29448   -1347.8168    376.31024    363.12136     -509.924    39062.633 
   43300    311.20842   -1355.7714    358.32615    394.96218    -743.4014    39062.633 
   43400    293.11837   -1353.2438     360.7688    318.99396   -109.50629    39062.633 
   43500    296.52289   -1363.6127    374.47475    337.56359   -57.140411    39062.633 
   43600    295.25307   -1349.9896    376.94105    347.97152    34.484981    39062.633 
   43700    301.31559   -1354.7898    378.15783    371.51301   -9.6982603    39062.633 
   43800    317.76385    -1341.149    393.88096    474.46965    830.49016    39062.633 
   43900    296.62242   -1333.0406    388.62132    382.72754    849.03087    39062.633 
   44000    298.13773   -1351.0512    382.07702    364.95238    413.57276    39062.633 
   44100    299.75377   -1346.8321    361.26308    355.58804    626.90268    39062.633 
   44200    299.97953   -1320.5944    378.14928    399.72206     427.8832    39062.633 
   44300    304.69286     -1368.77    378.99268    373.47818   -223.23105    39062.633 
   44400    299.73728   -1377.0202    389.06227    353.12533   -255.19887    39062.633 
   44500    290.45497   -1353.4799    406.53663    352.60921   -488.28715    39062.633 
   44600    301.71936   -1317.8451    378.40288    410.50929    -445.3848    39062.633 
   44700    315.06242    -1360.357     383.1172    432.41119    28.994476    39062.633 
   44800    299.86507   -1345.4894     366.3313    362.49697    348.14759    39062.633 
   44900    303.55377   -1361.5989    373.90282      370.463    208.83256    39062.633 
   45000    294.77196   -1344.7253    377.12242    351.26455    199.65366    39062.633 
   45100    299.11122   -1355.1642    345.49986    328.61782   -326.81525    39062.633 
   45200    300.57225   -1351.7659    371.00558    364.05886    116.68423    39062.633 
   45300    292.40119   -1351.7938    372.82809    329.29452    13.170992    39062.633 
   45400    290.97279   -1333.1589    387.86673     356.5771    22.029285    39062.633 
   45500    292.25615   -1305.4586    375.28933    377.44194   -134.74797    39062.633 
   45600    308.65656   -1345.2526    379.05071    414.78806     -112.778    39062.633 
   45700    311.10158   -1365.2412    400.23487    426.92303   -55.968624    39062.633 
   45800    307.91383   -1336.6822    382.45059    423.43518   -38.271986    39062.633 
   45900    303.86398   -1339.6735    388.91524    408.78875   -23.988256    39062.633 
   46000    310.03044   -1365.6635    405.28734    426.76072    609.86398    39062.633 
   46100    302.86399   -1369.6418    392.71851    378.14952    616.02524    39062.633 
   46200    299.77792   -1343.2957    374.67942    372.64887    631.64807    39062.633 
   46300    282.55001   -1351.0961    404.56818    317.65621       732.74    39062.633 
   46400    304.36915     -1329.11    386.27464    418.97186    948.27959    39062.633 
   46500    301.95561   -1358.6993    381.80673    374.11594    472.80201    39062.633 
   46600    303.93987   -1369.9541    390.24789    380.18031    167.12815    39062.633 
   46700     295.9697   -1404.0175    369.19347    289.40242   -224.50131    39062.633 
   46800    296.95588    -1355.282    376.49842    349.85517    64.331245    39062.633 
   46900    296.62049   -1324.4186    392.39763    395.11724   -205.29983    39062.633 
   47000    296.64231   -1348.9146    381.60905    359.93021   -226.53259    39062.633 
   47100    294.13299   -1360.6025    387.81862    343.22475   -455.68864    39062.633 
   47200    297.42643   -1301.5975    374.88163     404.0282   -220.05478    39062.633 
   47300    294.19429    -1307.279    371.04683    380.05071   -313.81887    39062.633 
   47400    298.40741   -1357.3247    373.00238    350.81087    -514.2027    39062.633 
   47500     295.7976    -1294.723    381.52241    410.25578   -333.71285    39062.633 
   47600    302.44893   -1269.2686    385.40455    469.35165   -467.86493    39062.633 
   47700     291.2656   -1314.0236    376.73386    365.88959   -115.34984    39062.633 
   47800    297.55588   -1364.3103    380.71305    347.72602    88.086224    39062.633 
   47900    303.98948   -1334.5745    416.33555    441.86952     720.9867    39062.633 
   48000    298.48199   -1338.2663    384.36997    381.57056    393.91494    39062.633 
   48100    298.50868   -1358.6963    405.25828    382.14829    196.30716    39062.633 
   48200     298.1907   -1362.9559    390.05246     361.2601   -112.65264    39062.633 
   48300    295.23869    -1355.776    390.40519     355.5849    177.75595    39062.633 
   48400    299.05695   -1365.8981    421.82851    393.96975    382.38656    39062.633 
   48500    291.63497   -1362.6756    417.23088    359.38725    452.10665    39062.633 
   48600     306.9221    -1399.124    396.72734      370.833   -29.631283    39062.633 
   48700    303.16129    -1370.079    418.95747    405.28152    237.04056    39062.633 
   48800     298.6968   -1376.2447    396.38622    356.56958    161.64665    39062.633 
   48900    302.36148   -1311.4931    405.54673    446.87811   -153.86462    39062.633 
   49000    311.79924   -1347.2596    410.92615    458.71742   -47.007668    39062.633 
   49100    294.35386   -1298.9468    406.86461    424.91464   -17.772906    39062.633 
   49200    291.46354   -1334.2174    387.06234    356.90987   -25.229867    39062.633 
   49300    301.86648   -1336.6822     386.6725    400.60004    263.20558    39062.633 
   49400    295.60099    -1322.033    405.54168    406.08538    698.63497    39062.633 
   49500    306.42362   -1343.4031    386.21057    413.80678    319.86935    39062.633 
   49600     297.2503   -1352.3313    407.52815    385.15296    78.690644    39062.633 
   49700    299.95492   -1344.0847    398.62308    396.59541    175.74265    39062.633 
   49800    298.00987   -1341.6544    394.71002    386.41015    40.114717    39062.633 
   49900    296.51509   -1320.7018    409.81427    415.77906     387.5543    39062.633 
   50000    305.74993   -1339.9587    415.12923    443.15563    341.74031    39062.633 
   50100    289.91979   -1334.4529    400.85855    363.56359    460.80474    39062.633 
   50200    288.52674   -1325.5738    412.43337    377.78475    448.54098    39062.633 
   50300    304.47268   -1371.3028    405.04677    396.01436     401.1947    39062.633 
   50400    297.22673   -1328.7963    392.83982    393.89415    212.06008    39062.633 
   50500    303.25711    -1418.631    402.37384    340.57456   -64.667685    39062.633 
   50600    298.76652   -1416.2456      391.385    311.87934   -176.46701    39062.633 
   50700    306.64397   -1367.8895      385.508    389.60366   -630.88681    39062.633 
   50800    290.58402   -1379.4019    391.80449    312.53239    -72.20878    39062.633 
   50900    302.34508   -1390.3082    399.14666    361.58958    395.53355    39062.633 
   51000    298.33791   -1366.0604    405.06213    373.82396    181.68111    39062.633 
   51100    296.84523   -1378.8828    387.63702    336.89788    741.26907    39062.633 
   51200    305.01244   -1356.1131    383.80037    392.37264    479.42903    39062.633 
   51300    299.13966   -1342.9992    442.21942    437.62966    -214.4916    39062.633 
   51400    301.53394   -1334.5006    394.96867    409.59001   -342.73258    39062.633 
   51500    290.13715   -1374.1598    430.82988    354.80051    126.99244    39062.633 
   51600    300.13012   -1388.2898    390.88709    345.43818   -119.26771    39062.633 
   51700    299.43666   -1376.1445    400.92369     364.5175   -73.262388    39062.633 
   51800    299.15386   -1397.8377    395.73612     336.3714    60.422784    39062.633 
   51900    306.02509    -1387.102    400.07005    382.18426    537.81728    39062.633 
   52000    306.23803   -1387.3479    388.48813    371.30914    191.46529    39062.633 
   52100    298.85511   -1413.0182    391.11637    315.23449    64.644615    39062.633 
   52200    313.66072   -1444.1605     389.0396    348.25861    529.54509    39062.633 
   52300    292.58882   -1413.1582     358.8611     254.8026    137.91965    39062.633 
   52400    296.68103   -1427.5205    381.66381    281.55239   -274.58996    39062.633 
   52500    295.37124   -1367.1221    367.27757    321.70422   -407.99898    39062.633 
   52600    299.29065   -1339.6248     387.7546    387.21486    339.70333    39062.633 
   52700    308.39371   -1325.5178    389.38336     443.6794    83.672142    39062.633 
   52800    304.71329   -1343.4737    408.74859    428.62187    458.47453    39062.633 
   52900    289.59971     -1359.41    409.86924    346.18508    341.52101    39062.633 
   53000    301.17418   -1322.2883    408.03898    433.26299    307.59295    39062.633 
   53100     293.3495   -1293.0461    401.34001    420.79701    385.25488    39062.633 
   53200    303.43463   -1364.1272    400.84255    394.34137   -99.880308    39062.633 
   53300    294.86057   -1344.2768    393.78507    368.77223    137.48481    39062.633 
   53400    314.77801   -1387.4945     413.7907     434.6747    329.83191    39062.633 
   53500    293.42641   -1365.7721    416.23423     363.3094   -23.840743    39062.633 
   53600    289.16167   -1372.4001    409.03426    330.40007   -590.30981    39062.633 
   53700    303.89519    -1338.092    397.50015    419.09475   -606.50498    39062.633 
   53800    314.66701   -1388.0484    402.00677    421.84021   -502.10442    39062.633 
   53900    297.76783   -1377.0442     397.3281    352.55547   -628.36127    39062.633 
   54000     295.6869   -1364.7814    388.26401    346.44375   -162.45709    39062.633 
   54100     300.6913   -1401.4351    411.72371    355.64037    14.822109    39062.633 
   54200    306.77592   -1392.3831    380.95522    361.14773    221.90975    39062.633 
   54300    300.36729   -1394.2233    412.34366    362.02245    457.63386    39062.633 
   54400    294.08434   -1370.1964    413.98302    359.57755    122.05446    39062.633 
   54500    307.60675   -1389.8419    381.61686    368.06783    605.52647    39062.633 
   54600    311.73881   -1377.7453    405.14268    422.17788      278.899    39062.633 
   54700    302.32101   -1395.1676    383.28879    340.76459     57.29801    39062.633 
   54800    299.76869   -1378.5973    410.13216    372.75867    517.35034    39062.633 
   54900    309.10063   -1403.9225    396.84639    375.90067    360.56667    39062.633 
   55000     301.0498   -1386.8339    412.95709    373.07896    198.41433    39062.633 
   55100     296.9916    -1392.328    417.58946    354.06004   -307.80226    39062.633 
   55200    295.67041    -1322.268    392.85818    393.47749    31.616551    39062.633 
   55300    298.56317   -1331.3472    384.08547    388.56833   -167.69611    39062.633 
   55400    309.10645   -1372.7528    419.66776    429.91781   -205.17074    39062.633 
   55500    300.00624   -1391.4091    424.97929    375.85691    384.52445    39062.633 
   55600    293.55098   -1402.4251    406.86613    317.84562   -143.38853    39062.633 
   55700    302.43223   -1377.7751    408.41012    383.77607   -33.131806    39062.633 
   55800    294.62778   -1377.8246    388.16193    328.55977   -121.67233    39062.633 
   55900    305.26281   -1375.3566    388.79232    379.24137   -237.02102    39062.633 
   56000    297.93259   -1362.7331    409.19037    379.46608    54.041309    39062.633 
   56100    300.81547   -1339.9741    424.95517    430.88837    14.448087    39062.633 
   56200    307.12651   -1362.2052    415.72997    427.66898   -595.93832    39062.633 
   56300    291.86581    -1377.945    397.77353     325.6934   -433.55306    39062.633 
   56400     300.8671   -1387.7259    406.28707    364.69949   -460.35239    39062.633 
   56500    309.61694    -1357.819    411.99668    439.46453    -88.16141    39062.633 
   56600    304.45055   -1385.5485     402.1404    378.76328    185.72792    39062.633 
   56700    298.88584   -1393.7144    411.60872    355.16805     257.5652    39062.633 
   56800    303.00525   -1374.1877    405.46539    386.98258   -119.27469    39062.633 
   56900    299.44464   -1407.4993    432.38664    364.66131   -169.00143    39062.633 
   57000    299.21243   -1374.1196    422.79069    387.40607   -446.38203    39062.633 
   57100    303.38419   -1397.5193    404.63471    364.51566   -483.36537    39062.633 
   57200    307.45258    -1340.397    402.56312    437.76916   -381.57393    39062.633 
   57300     311.6072   -1374.9384    438.03622    457.28948    216.20166    39062.633 
   57400    298.07092   -1391.0859    398.17399    340.71576   -169.34179    39062.633 
   57500    304.86041   -1384.9216    417.73459    396.81816    358.92299    39062.633 
   57600    303.83028    -1335.867    424.18208    447.71125    900.91325    39062.633 
   57700    307.60838   -1397.4106    419.58415    398.47365    496.50558    39062.633 
   57800    291.93299   -1369.9009    426.74289    363.00733    624.42616    39062.633 
   57900    296.66469   -1358.3325    425.20877    394.21218    929.31013    39062.633 
   58000    293.07009   -1376.7353    415.15138    349.66912     393.2943    39062.633 
   58100    295.23321   -1376.0564    398.95679    343.83155    81.281232    39062.633 
   58200    304.46739   -1360.5836    424.33071    425.99384    109.58396    39062.633 
   58300    294.34762   -1360.7085    437.90505    394.16547    81.406522    39062.633 
   58400    294.52202   -1381.7847    403.03487    338.99935    90.019605    39062.633 
   58500    304.61139   -1345.3376    407.61298    425.16635   -22.966161    39062.633 
   58600    300.00569   -1383.7354    413.02853    371.57739   -270.48875    39062.633 
   58700    293.57091   -1372.2401    435.54259    376.79622   -505.92178    39062.633 
   58800    306.49141   -1361.9941    403.55607    412.86455   -383.35767    39062.633 
   58900    290.93465   -1372.3761    407.58285    336.90532   -415.46131    39062.633 
   59000    301.11161   -1381.4106    389.11974    354.94144   -134.19263    39062.633 
   59100    294.33629   -1412.2826    413.99155     318.6271    248.28756    39062.633 
   59200    308.71668   -1401.8068    408.35336    387.80547    258.96388    39062.633 
   59300    301.81304   -1398.9684    406.06286    357.46508   -282.16395    39062.633 
   59400    314.00848   -1394.9252    419.20405    429.21433   -759.11949    39062.633 
   59500    288.93503   -1405.5332    409.13812    296.35683   -866.83413    39062.633 
   59600    297.88463   -1416.4238     416.0058    332.37619    -454.6028    39062.633 
   59700    304.51682   -1460.0552     404.5698    306.98253   -206.77263    39062.633 
   59800    310.34848   -1413.2467    416.84314    392.15633   -266.49585    39062.633 
   59900    303.45519   -1404.1953    410.48906    364.01171    139.57097    39062.633 
   60000    292.21616   -1428.3343    372.12866    251.22668    270.00762    39062.633 
   60100    303.13521   -1438.1456    434.32363     352.4643    618.53012    39062.633 
   60200    306.12596   -1448.1665    412.46529    333.96634    386.11333    39062.633 
   60300    298.57916   -1413.4412    423.51784    345.97831    799.99193    39062.633 
   60400    295.79098   -1455.9943    429.38456    296.81702    419.34337    39062.633 
   60500      300.843   -1445.6579    413.34586    313.71843    21.998141    39062.633 
   60600    301.03513   -1447.2666    407.15367    306.77723   -35.326395    39062.633 
   60700    296.71885   -1436.0641    431.87427    323.38842   -192.50176    39062.633 
   60800    291.36979   -1420.8323    414.44032    297.25352   -7.0703489    39062.633 
   60900    297.02372   -1429.8753    401.37783    300.44484   -222.00096    39062.633 
   61000    305.67242   -1390.1404    405.27741    382.77526      631.568    39062.633 
   61100    301.19175   -1430.2429    416.26378    333.61176    46.077969    39062.633 
   61200    301.31744   -1404.4318    403.25024    346.97169    682.88901    39062.633 
   61300    297.31774   -1415.8842    408.03573    322.40939     -240.701    39062.633 
   61400    302.74305   -1418.3441    418.90315    355.09076   -41.458001    39062.633 
   61500    289.98988   -1370.8075    416.97257    343.63662   -194.52648    39062.633 
   61600    301.52274   -1395.0431    417.17557    371.20427    517.34213    39062.633 
   61700    303.66626   -1409.8825    419.27092     368.0508    335.12773    39062.633 
   61800    305.37098   -1401.7973    432.59997     397.0922    175.35281    39062.633 
   61900    291.83466   -1429.1628    415.14512    291.70771    558.18114    39062.633 
   62000     302.9531   -1395.3248    411.09628    371.24295    560.60301    39062.633 
   62100    299.11578   -1433.0947    421.03009    326.23802     358.3613    39062.633 
   62200    306.57715   -1410.2897    407.76394    369.16046     614.6672    39062.633 
   62300    304.42366   -1418.1701    412.25972    356.14077    330.27239    39062.633 
   62400    300.57531   -1423.5277    416.40024    337.70538     144.6992    39062.633 
   62500    300.33877   -1417.3753    435.73436    362.13353    317.60332    39062.633 
   62600    299.53465     -1378.74    440.10276    401.53945    104.69285    39062.633 
   62700    296.45972   -1410.5485    422.34519    338.21561    175.50234    39062.633 
   62800     295.5983   -1409.7581    415.25632    328.06287   -275.80376    39062.633 
   62900    303.74449   -1396.5968     423.6939    386.10944    498.03796    39062.633 
   63000    295.16742   -1382.3404    424.76525    363.06175    382.40131    39062.633 
   63100    295.59975   -1431.9468    416.86123    307.48564    71.047459    39062.633 
   63200    309.42564     -1371.57    417.74246    430.60335    216.18671    39062.633 
   63300    297.25928   -1436.4595    419.23266    312.76937    195.25777    39062.633 
   63400    298.28223   -1385.0608    424.35276    373.86506    415.46884    39062.633 
   63500    299.08347   -1441.7695    419.73166    316.12018   -313.02808    39062.633 
   63600    296.91476   -1396.7842    388.02006    319.69069    21.569568    39062.633 
   63700    295.59351   -1390.2331    420.59962     352.9098   -150.29906    39062.633 
   63800    300.88326   -1371.2222     443.8618    418.85028    216.52936    39062.633 
   63900    298.62969   -1379.3238    411.72241    368.52635     -239.366    39062.633 
   64000     311.4715   -1403.3839    429.68193    419.88256      10.1698    39062.633 
   64100    297.31075   -1392.0698     431.1982    369.35492   -667.34331    39062.633 
   64200     288.6071   -1384.4859    422.10579     328.9046   -563.53219    39062.633 
   64300    312.75703    -1352.217    411.96141    459.08066   -310.16203    39062.633 
   64400    295.04234   -1371.4515    415.51958    364.14529   -270.98681    39062.633 
   64500     307.3157   -1408.2973    411.52428    378.21763   -101.53818    39062.633 
   64600    307.82557   -1402.0663    407.92949    383.13514   -572.79121    39062.633 
   64700    304.42848   -1439.6424    402.48909     324.9193   -490.57715    39062.633 
   64800    301.33807   -1409.3892     420.2683    359.12463   -45.757344    39062.633 
   64900    301.20923   -1431.5699    396.87862    312.97777    416.89177    39062.633 
   65000    310.57982   -1416.1871    396.43085    369.83875   -487.49716    39062.633 
   65100    296.21849   -1406.4612    426.35706    345.23547   -4.9400523    39062.633 
   65200    306.40571   -1405.2616    408.72413    374.38171   -67.333478    39062.633 
   65300    301.12372   -1424.4798     411.7348    334.54147   -242.28876    39062.633 
   65400    293.17928   -1415.2663    428.54506    325.02027   -66.790801    39062.633 
   65500    300.49259   -1385.6532    436.58502    395.39454    -34.66085    39062.633 
   65600    299.28281   -1406.4896    432.16118    364.72152   -121.06205    39062.633 
   65700    296.44531   -1450.7696    409.94658    285.53135   -27.349826    39062.633 
   65800    304.30077    -1421.454    402.63727    342.68449    -208.4372    39062.633 
   65900    289.30133   -1418.5079     432.6359    308.51883    82.847409    39062.633 
   66000    304.24758   -1451.0064    409.78207    320.03892    284.53879    39062.633 
   66100    295.94136   -1462.0742    420.24423    282.26964    586.13708    39062.633 
   66200    305.69251    -1451.803    412.49098    328.41618    847.17918    39062.633 
   66300    300.34982   -1419.9245     424.8663    348.76578    526.67297    39062.633 
   66400     301.5405   -1407.4379    412.92494    354.63833    819.87124    39062.633 
   66500    294.34687   -1402.8185    391.93306     306.0801    915.76332    39062.633 
   66600    297.31789   -1402.6326    408.95402    336.57991    658.97432    39062.633 
   66700    293.11628   -1402.7396    410.02115    318.74118    786.86798    39062.633 
   66800    311.67739   -1417.4216    399.15925    376.24337    374.64023    39062.633 
   66900    308.98309   -1429.2341    425.38908    378.60579    219.90258    39062.633 
   67000    300.19103   -1378.3543    428.14485    392.90402    53.679517    39062.633 
   67100    308.10849   -1403.2916    436.71281    411.95892   -270.86789    39062.633 
   67200    297.30795   -1452.3906    419.12747    296.95089    85.719742    39062.633 
   67300    302.43077   -1410.3557    415.79058     358.5694    -298.3702    39062.633 
   67400    297.85874    -1425.365    411.14195    318.45528   -73.341837    39062.633 
   67500    308.21958   -1425.9077    399.60121    352.72828   -117.89227    39062.633 
   67600    295.80614   -1392.2668    442.11255    373.34042    -15.68649    39062.633 
   67700    309.05323   -1436.8634     416.5472    362.44855   -95.389058    39062.633 
   67800    299.96906   -1366.6726    433.67276    409.12046      166.878    39062.633 
   67900     303.0981   -1399.0533    429.72562     386.7926   -105.67574    39062.633 
   68000    297.93259   -1362.6174    452.92305    423.31441   -124.00635    39062.633 
   68100    290.52069   -1380.0353    417.47397    337.28516   -423.60078    39062.633 
   68200    293.65588   -1400.7854     426.0841    339.17256    -5.207484    39062.633 
   68300    298.88831   -1407.4827    411.51143    341.31356    109.33622    39062.633 
   68400    290.10777   -1421.1874    446.42399    323.23563    178.97567    39062.633 
   68500    293.81702   -1404.6386    422.21728    332.17359   -35.238692    39062.633 
   68600     292.2672   -1392.3717    411.07103    326.36007   -171.92127    39062.633 
   68700    307.99523   -1342.6716    425.75063    461.11003   -570.23372    39062.633 
   68800    302.50975   -1361.0397    436.17667    428.62487   -11.578415    39062.633 
   68900    284.22979   -1372.1111    452.83944    352.42805   -424.25048    39062.633 
   69000    312.40176   -1364.2835    418.47927    451.94246    66.133353    39062.633 
   69100    306.94622   -1352.8159    421.27644    441.79803    311.27982    39062.633 
   69200     308.8999   -1357.2871    444.32851    469.12004    304.31014    39062.633 
   69300    298.11358   -1396.2251    446.19942    383.79285    9.3633496    39062.633 
   69400    295.61747   -1383.5646    432.52432    371.61016   -47.374144    39062.633 
   69500    307.26301   -1336.8357    428.99984    466.91906   -10.890364    39062.633 
   69600     296.1009   -1341.2599    427.10869     410.6622   -674.81861    39062.633 
   69700      302.561   -1385.0129     435.5848    404.28903   -533.70949    39062.633 
   69800    301.29976   -1360.4929    440.21621     427.7975   -308.88928    39062.633 
   69900    302.19564   -1391.1695    426.42786    387.34085   -620.11985    39062.633 
   70000    295.75256   -1338.5409    412.63213    397.34614   -867.97499    39062.633 
   70100    296.52973   -1349.3475    440.23392    417.61847    -667.1095    39062.633 
   70200    292.83347   -1354.8367    408.16214    363.51977   -550.08418    39062.633 
   70300    298.84339   -1371.5703    441.47291    406.98653   -559.32855    39062.633 
   70400    303.25774   -1401.5074    424.24949     379.5766   -19.469035    39062.633 
   70500    307.82558   -1384.4257    427.01954    419.86577   -385.28663    39062.633 
   70600    297.80993   -1334.9995    440.81905    438.27956   -130.03611    39062.633 
   70700      294.564   -1381.5138    409.82313    346.24636   -41.094436    39062.633 
   70800    297.65679   -1379.1072    416.04382    368.71135   -436.85551    39062.633 
   70900    296.32293   -1420.6037     409.9188    315.12198    -295.7562    39062.633 
   71000    300.80162   -1414.5424    404.79853    336.10145    395.03161    39062.633 
   71100    299.43142   -1388.7242    409.72498    360.71556    16.643667    39062.633 
   71200    295.56796   -1380.2634    410.56228    352.72778   -263.74886    39062.633 
   71300    302.33759   -1398.2699    412.39196     366.8397    283.54802    39062.633 
   71400    296.29612   -1406.0793    408.68329    328.29092   -13.630087    39062.633 
   71500    286.83472   -1386.5983    407.98574    304.74212    332.63988    39062.633 
   71600    303.71998   -1425.6339    437.44081    370.70958     1089.704    39062.633 
   71700    297.30338   -1363.2412    432.44445    399.39674    593.69941    39062.633 
   71800    300.81171   -1370.5996    440.19028    415.48124    275.58624    39062.633 
   71900    305.26867   -1376.4632    423.75073     413.1194     538.6799    39062.633 
   72000    301.29116   -1410.9568    427.20998    364.28889    273.63334    39062.633 
   72100    302.66435   -1414.5296    415.05047     354.7005     346.1515    39062.633 
   72200    299.33316   -1413.3267    418.52793    344.47647    223.84276    39062.633 
   72300    303.39611    -1431.105    426.01359    352.36218    432.21599    39062.633 
   72400    306.95668   -1392.1533    430.72157     411.9526    601.56817    39062.633 
   72500    303.39551   -1416.6705    412.40656    353.18703     743.8229    39062.633 
   72600    301.29495   -1404.4295    431.33117     374.9543    400.54239    39062.633 
   72700    300.05076   -1410.8403    431.02181    362.66739   -9.7723657    39062.633 
   72800    303.22277   -1365.3886    434.41191    425.70134   -594.14674    39062.633 
   72900    309.95246   -1387.3402    417.92954    417.37731   -198.79664    39062.633 
   73000    314.67812   -1411.7075    422.33321    418.55727    15.498002    39062.633 
   73100    303.00333   -1430.4854    449.55955    374.77044   -264.30476    39062.633 
   73200    288.78049   -1482.3462    406.41598    216.13025    114.90426    39062.633 
   73300    294.42944   -1467.2974    409.71262    259.75025    103.04743    39062.633 
   73400    308.95795   -1454.7665     420.7274    348.29933    44.737981    39062.633 
   73500    298.42934    -1437.729    421.52145    319.02373    96.624457    39062.633 
   73600    298.19512   -1417.6465    411.58956    328.12641    279.95798    39062.633 
   73700    295.73468   -1450.1862    426.14919    299.13785    487.29962    39062.633 
   73800    301.96013   -1430.4489    432.70866     353.2886    -95.51173    39062.633 
   73900    295.34541    -1462.476    418.78624    277.74349   -91.405407    39062.633 
   74000    313.32156   -1411.3649    409.65445    400.15166    153.45322    39062.633 
   74100    297.42577   -1441.2395    410.92551    300.42721    298.21745    39062.633 
   74200    308.13171   -1477.5279    392.09738    293.21106    456.76135    39062.633 
   74300    295.65796   -1411.7235    432.38931    343.49745   -8.0739374    39062.633 
   74400    297.51878   -1429.3394    423.89537    325.71328    270.66166    39062.633 
   74500    292.19437   -1430.4761    420.73413    297.59286    574.13006    39062.633 
   74600     308.7838   -1469.9014    416.03904    327.69686     332.0558    39062.633 
   74700    298.61561    -1451.573     423.7048    308.19652    229.90624    39062.633 
   74800     308.8013   -1458.0498    406.58374    330.17146    604.96787    39062.633 
   74900    305.87755   -1369.0649    408.22678     407.7179    438.26794    39062.633 
   75000    298.02065   -1362.2338    428.59766    399.76662    382.88621    39062.633 
   75100    293.05582   -1405.2523    397.49255    303.42939    518.73197    39062.633 
   75200    306.09936   -1439.0786    417.34581    347.81565    740.27889    39062.633 
   75300    287.22953   -1429.0855    419.84802    275.88367     344.3218    39062.633 
   75400     309.9839   -1410.5111    414.75884    391.17644    688.41344    39062.633 
   75500    309.70332   -1429.2131    407.78601    364.24627    119.54584    39062.633 
   75600     293.6733   -1430.6376     431.6037    314.91803    77.181108    39062.633 
   75700    303.16483   -1405.8723    425.74542    376.29193   -68.446114    39062.633 
   75800    301.82502   -1366.8397    432.26223    415.84675   -309.14194    39062.633 
   75900    308.50797   -1362.2573    437.39542    455.46324   -3.5526407    39062.633 
   76000    303.24683   -1397.6094    423.51932    382.69559    -457.2941    39062.633 
   76100    290.39673   -1411.1726    438.50283    326.62213    107.28204    39062.633 
   76200    300.52935   -1396.3025    418.26984    366.59457   -46.101051    39062.633 
   76300    298.97926   -1409.6295    399.92713    327.98935   -304.30896    39062.633 
   76400    302.29667   -1383.7899    417.98132    386.72592   -39.745548    39062.633 
   76500    302.50442   -1433.9738    411.98987    331.48007     381.1598    39062.633 
   76600    295.54107   -1428.2325    433.31679    327.39296   -164.73616    39062.633 
   76700     304.2524   -1398.6602    430.17112    392.79573     389.4448    39062.633 
   76800    303.94853   -1377.9112    408.65594    390.66997    416.37351    39062.633 
   76900    309.54401    -1372.285    430.83921    443.51471    288.87518    39062.633 
   77000    304.69174   -1365.7183    444.38229    441.91455    37.345608    39062.633 
   77100    296.29011   -1354.7223    412.00598    382.94365    305.88681    39062.633 
   77200    297.52957    -1369.065    444.89658    407.03711    278.86497    39062.633 
   77300    290.08619   -1388.0987    430.34198    340.14571    187.31292    39062.633 
   77400    304.87504   -1400.0213    420.33307    384.38238    171.74991    39062.633 
   77500    304.33176   -1403.9723     431.0529    388.72051    157.67295    39062.633 
   77600    308.12626   -1389.3251    438.18312    427.47525    355.87446    39062.633 
   77700     309.1213   -1429.7473    438.74127    392.06322    635.35212    39062.633 
   77800    301.44799   -1422.5121    421.54197    347.76717   -172.73959    39062.633 
   77900    299.14172   -1430.8296    425.83426    333.42337   -683.79012    39062.633 
   78000    287.35174   -1435.8486    462.46386    312.28319   -482.31849    39062.633 
   78100    293.75332   -1480.7099    429.31131    262.91134   -195.93489    39062.633 
   78200    306.39585   -1488.8803    433.66189    315.65664   -206.04211    39062.633 
   78300    294.68404   -1421.2901     414.7908    311.97484    178.68635    39062.633 
   78400    289.54198   -1423.1812    404.85054    277.13687   -168.66401    39062.633 
   78500    304.94001    -1439.261    417.09895    342.19932   -23.232822    39062.633 
   78600    299.61001   -1501.5936    405.75785    244.67811   -650.23529    39062.633 
   78700    303.43155   -1451.8968     406.4138    312.12915   -533.63906    39062.633 
   78800    306.50119    -1442.156    410.17478    339.36511   -176.26456    39062.633 
   78900    299.78838   -1415.1589    434.85436    361.00738    -82.24649    39062.633 
   79000    299.42044   -1415.5253    431.72722    355.86761    9.3664644    39062.633 
   79100    305.16307   -1416.6499    434.13906    382.84851     -428.499    39062.633 
   79200    285.49627   -1370.0006    411.56714    318.93275   -111.34671    39062.633 
   79300    305.43693   -1416.6562    437.76103    387.68948   -177.65727    39062.633 
   79400    309.34729   -1409.7624    415.40833     389.7263    147.96214    39062.633 
   79500    296.86527   -1472.4291    439.69293    295.49718   -86.829435    39062.633 
   79600    302.49686   -1501.1352    423.73812    276.03313   -86.479844    39062.633 
   79700    309.58836   -1423.8502    409.09384    370.40259    679.27137    39062.633 
   79800    295.74547   -1458.0193    432.88829    298.09221    554.86314    39062.633 
   79900    293.92283   -1450.3155    406.96825    271.72103    366.13236    39062.633 
   80000    295.56303   -1480.5645     425.1188    266.96119    497.86679    39062.633 
   80100    307.72348   -1489.5441    413.26496    300.53598    29.122631    39062.633 
   80200    295.16069   -1455.2053    404.20512     269.6066    252.06093    39062.633 
   80300    301.03627   -1468.7433    410.78244     288.9344    140.81153    39062.633 
   80400    303.55648    -1489.051    440.60299    309.72314    329.76242    39062.633 
   80500    291.41512   -1460.2545     429.5944    273.18825    424.09929    39062.633 
   80600     306.3029   -1412.8309    439.47087    397.09914    98.751913    39062.633 
   80700    305.88984   -1390.9241    437.85949    415.54649    316.08721    39062.633 
   80800    306.55656   -1451.4517    414.51993    334.66235   -224.40082    39062.633 
   80900    306.96374   -1464.3735    411.99204    321.03444   -473.79387    39062.633 
   81000    303.66548   -1457.7286    416.34884     317.2791   -609.12299    39062.633 
   81100    303.24801   -1468.7978    436.27993    324.27311    61.166884    39062.633 
   81200    309.95647   -1458.3727    437.53441    365.96769   -45.005577    39062.633 
   81300    287.41157   -1415.3355    429.08546    299.68568    128.02015    39062.633 
   81400    301.59782   -1402.9103    457.84576    404.34318    273.98912    39062.633 
   81500    296.55832   -1396.5485    411.38754     341.6991   -369.81903    39062.633 
   81600       289.83   -1443.1801    421.65187    275.22797   -82.179386    39062.633 
   81700    292.59383   -1423.0725    442.55407    328.60371   -172.20971    39062.633 
   81800    300.61145   -1377.6458    418.90166    386.25035   -393.05243    39062.633 
   81900    297.61023   -1389.2319     451.4549    393.78949    229.09992    39062.633 
   82000    300.41097   -1429.9812    424.95643    339.07273   -114.82706    39062.633 
   82100    283.93096   -1404.7678    428.30913    293.90407    -60.67322    39062.633 
   82200    299.27871    -1417.614    432.40393    353.82155    263.96178    39062.633 
   82300    296.94423    -1394.846    432.08138    365.82204    281.57234    39062.633 
   82400    304.06464   -1378.3962    441.41579    423.46432    401.35664    39062.633 
   82500    310.20639   -1414.9406    429.25917    402.24273    126.60879    39062.633 
   82600    297.95859   -1406.3849    432.78905    359.52927    429.80159    39062.633 
   82700    303.91234   -1380.1855    409.36664    388.94446   0.80642266    39062.633 
   82800    299.46248   -1406.1231    419.71028    353.44092   -193.21301    39062.633 
   82900      290.575   -1386.7331    426.36557    339.72197   -806.80294    39062.633 
   83000    293.39394    -1393.588    429.96226    349.07619   -162.46498    39062.633 
   83100    299.78233   -1403.5694    448.70666    386.42209   -260.14378    39062.633 
   83200    309.29626   -1419.7903    434.27679    398.33855   -85.625623    39062.633 
   83300     297.1472   -1401.4314    441.86534    369.92873   -116.49189    39062.633 
   83400    294.78418   -1414.7956    432.91367    337.04019   -117.80162    39062.633 
   83500    299.65743   -1413.6533    434.62537    361.69804   -233.82836    39062.633 
   83600    307.60414    -1393.879    429.57603    411.97819   -381.66921    39062.633 
   83700    305.51576   -1410.4621    432.45829    388.93348   -47.577632    39062.633 
   83800    297.92987   -1434.7428    428.96478     327.2186   -281.06192    39062.633 
   83900    290.22823   -1411.2547    410.17112    297.45441   -533.22643    39062.633 
   84000    308.02054   -1401.4758    437.58682    414.25521   -249.66543    39062.633 
   84100    294.46363   -1407.5432    427.71775    337.66247   -867.71055    39062.633 
   84200    292.75559   -1432.3825    436.18914    313.65254   -264.84101    39062.633 
   84300    288.31951   -1403.0038    451.55801    338.55216   -376.15015    39062.633 
   84400    313.92195    -1435.275    450.45321    419.72656   -305.62717    39062.633 
   84500    311.57025    -1412.556    429.37529    410.84559   -146.40304    39062.633 
   84600    298.48841   -1436.6147    407.86714    306.74801   -765.23337    39062.633 
   84700    302.34096   -1381.5909    418.43598    389.57777   -107.54683    39062.633 
   84800    296.20423   -1391.4545    422.63906    356.46034   -369.25884    39062.633 
   84900    306.30403   -1414.1547    434.87239    391.18195     332.7976    39062.633 
   85000    306.18313   -1405.9298    428.84627    392.83981  -0.68127662    39062.633 
   85100     300.3772   -1427.3469    423.61115    340.21067   -179.96949    39062.633 
   85200    307.83408   -1430.6792    427.51921    374.14997   -32.405386    39062.633 
   85300    303.89557   -1464.7925    405.23988    300.13564   -336.42605    39062.633 
   85400    302.09519   -1440.4476     433.0238     344.2093   -494.61429    39062.633 
   85500    312.68432   -1414.6709    429.85079    414.19074   -101.67763    39062.633 
   85600    294.26492   -1427.3006    436.34107    325.63939   -607.39968    39062.633 
   85700    296.08749   -1430.4803    410.90514    305.17827   -469.76577    39062.633 
   85800    303.89433   -1423.6092    417.61416    353.68773    23.611454    39062.633 
   85900    303.97682   -1422.6274    427.37408    364.79847   -100.14644    39062.633 
   86000    304.32404     -1410.67    441.22403    392.15936   -221.59908    39062.633 
   86100    291.55684   -1432.6435    430.14346    301.98242   -278.79346    39062.633 
   86200    298.51177   -1420.0042    456.41467    372.01061   -266.10808    39062.633 
   86300    306.50653   -1415.4562    434.78452    390.69851   -458.31107    39062.633 
   86400    294.38613   -1433.7168    431.71509    315.13954   -226.26723    39062.633 
   86500    307.03536   -1400.4522     445.2107    418.49478   -147.86484    39062.633 
   86600    296.94673    -1379.454    434.81067    383.95455    356.45667    39062.633 
   86700    301.06495   -1433.4223    445.86649    359.46777   -278.08647    39062.633 
   86800    296.38328   -1418.8152     462.4815     369.7432   -92.037862    39062.633 
   86900    301.31211   -1454.2619    450.00075    343.86822    -221.8581    39062.633 
   87000    300.24094   -1421.3689      440.888    362.85594   -192.87278    39062.633 
   87100    293.34895   -1435.9904    452.53683     329.0471   -329.33951    39062.633 
   87200     298.7986   -1444.6953    438.93642    331.12453   -112.20035    39062.633 
   87300    308.78313   -1418.0755    446.89171    410.37239    28.066086    39062.633 
   87400    286.75849   -1430.4126    469.16248    321.76356    224.56675    39062.633 
   87500    296.43429   -1417.6498    417.72093    326.37619    337.50037    39062.633 
   87600    296.41576   -1432.4774    429.55935    323.30414   -198.78172    39062.633 
   87700    282.89654   -1423.7332     423.0932    265.09448    83.153051    39062.633 
   87800    302.25968   -1410.5977    442.96251    384.73383    167.29951    39062.633 
   87900     306.1964   -1437.8056     438.7877    370.96474    622.54915    39062.633 
   88000    290.31083   -1409.1866    445.72406    335.44497    186.71567    39062.633 
   88100    306.32319   -1381.2806     442.9327    432.20203     -293.395    39062.633 
   88200    293.14514   -1398.1725    442.37495    355.79125    141.16949    39062.633 
   88300    302.70648   -1418.0078    444.55864     380.9189   -118.33593    39062.633 
   88400    284.66959   -1442.1327    424.84006    256.37485    -367.0028    39062.633 
   88500    300.24968   -1417.4815    445.75344    371.64785    104.31866    39062.633 
   88600    304.72663   -1456.9837    449.70419    356.12707    61.551411    39062.633 
   88700     299.4942   -1460.6543    432.94848    312.28994    364.95446    39062.633 
   88800    288.93248   -1411.4029    452.54997    333.88763   -471.82645    39062.633 
   88900    298.60661   -1432.6472    433.27874    336.65596    56.240089    39062.633 
   89000    303.34378   -1437.5603     430.8485    350.50769    185.81899    39062.633 
   89100    311.57768   -1424.9616    438.52747    407.62548   -351.87184    39062.633 
   89200    301.63689   -1440.9575    444.44422    353.06925    11.560615    39062.633 
   89300     295.6503   -1472.5555    428.70799    278.94988   -173.24615    39062.633 
   89400    292.39408   -1475.3992    425.75238    258.58153   -46.141377    39062.633 
[...]
  984800    296.51986   -1505.1611    495.36531    316.89216   -961.74472    39062.633 
  984900    296.26217    -1533.947    487.64683     279.2348    -409.2084    39062.633 
  985000     302.2998   -1517.8773    460.21239    294.88359    59.603566    39062.633 
  985100    301.76846   -1483.9408    489.42592    355.65636   -486.90004    39062.633 
  985200    303.34931   -1496.6833    480.18482    340.74579   -317.99143    39062.633 
  985300    301.42135   -1528.8721    479.10719    298.85323   -402.50572    39062.633 
  985400    294.54786   -1550.4709    473.61538    241.00934   -150.63084    39062.633 
  985500    303.49235   -1574.3671    485.32932    268.84644    223.36811    39062.633 
  985600    308.54516   -1528.7696    485.38799    337.10986     -3.63776    39062.633 
  985700    306.35518   -1501.3045    479.87935    349.26796   -363.89504    39062.633 
  985800    297.47806   -1546.3108     484.3203    268.98462   -149.87314    39062.633 
  985900     305.5823   -1584.5658    458.99846    241.66777    -1.366491    39062.633 
  986000    290.70861    -1521.172    492.17519    271.69044   -104.90815    39062.633 
  986100    298.81443   -1529.0342      494.573    302.49305   -84.745349    39062.633 
  986200    300.09115   -1534.4502    468.14798    276.36434    441.71596    39062.633 
  986300    295.82951   -1533.6022    510.27491    300.27187     252.0517    39062.633 
  986400    300.38192   -1529.1116    496.78827    311.64418    501.11062    39062.633 
  986500    302.61213   -1518.1847    482.84224    318.60351    606.93059    39062.633 
  986600    294.02188   -1500.0399     495.3502    310.82179    393.10676    39062.633 
  986700    305.88693   -1512.5776     499.4159    355.43632    746.46441    39062.633 
  986800    294.05681   -1508.0001    474.33299    282.00064    360.42517    39062.633 
  986900    303.89877   -1499.6772    481.60666    341.63209    22.528203    39062.633 
  987000    295.93225     -1498.66    493.08921    318.48808   -318.43934    39062.633 
  987100    295.62066   -1512.1688    475.67175    286.16776   -514.97168    39062.633 
  987200    299.74745   -1468.8151    488.38956    360.70333   -754.89217    39062.633 
  987300    303.38535   -1527.0175    491.92032    322.30828   -221.25245    39062.633 
  987400    293.98658   -1521.5527    504.28251    298.08333    47.205106    39062.633 
  987500    291.95666   -1502.9111    486.43131    289.79146    25.490802    39062.633 
  987600    311.59814   -1487.1533    495.45811    402.45592    220.90618    39062.633 
  987700     291.5004   -1518.1286     474.8532    260.95446   -117.72875    39062.633 
  987800    304.55809   -1497.9244    460.19127    324.91941    323.37278    39062.633 
  987900    294.13705   -1523.6528    472.84574     265.2197    324.22076    39062.633 
  988000     317.0985   -1496.4303    471.81505    394.14558    46.144219    39062.633 
  988100    293.72544   -1497.9183    475.69074    291.95759   -279.71436    39062.633 
  988200    305.12322   -1462.5966    492.03341    394.61792   -635.31589    39062.633 
  988300    294.49944   -1493.8769    470.73882    294.51012   -758.84933    39062.633 
  988400    298.61046   -1513.4284    485.88054    308.49379   -242.22128    39062.633 
  988500    305.24903   -1472.6773    468.25663     361.3233    83.353969    39062.633 
  988600    308.77014   -1460.7405    509.03246    429.79006   -238.40995    39062.633 
  988700    288.58709   -1475.3635    489.60831    305.43997   -178.94181    39062.633 
  988800    292.45143   -1459.4151    506.12695    355.19679   -303.32346    39062.633 
  988900    299.39232   -1493.7945    497.50448    343.24985   -120.91443    39062.633 
  989000    294.86984   -1492.5104     470.7639     297.5589   -282.09716    39062.633 
  989100    302.35533   -1466.9134    486.20004     372.0836     304.9541    39062.633 
  989200    298.94255   -1483.0509    471.83169    326.30831    87.001682    39062.633 
  989300    290.00381   -1514.6774    490.42197    273.27846    47.279368    39062.633 
  989400    294.89606   -1525.0847    501.12517     295.4632    89.123785    39062.633 
  989500    296.77472   -1513.8387     477.7394    291.72895   -58.553589    39062.633 
  989600    297.17701   -1565.0622    507.59856    272.16454   -356.43922    39062.633 
  989700    300.04873   -1567.3499    446.80091     221.9278   -318.87127    39062.633 
  989800    308.82217   -1543.9288     489.8768    327.67893   -615.94241    39062.633 
  989900     289.6777   -1523.2574     498.1545    270.97182    129.76492    39062.633 
  990000    305.83793   -1516.4656    471.69418    323.60736   -339.80726    39062.633 
  990100    298.50412   -1547.3123    507.46104    295.71466    281.36781    39062.633 
  990200    297.35899   -1558.7776    476.29361    247.95835    146.43831    39062.633 
  990300    291.35044   -1528.9347    496.67384    271.29814   -204.12496    39062.633 
  990400    306.21313    -1518.856    479.40703    330.60855    235.18797    39062.633 
  990500    302.01008   -1541.1579    507.43709    317.53143   -328.51888    39062.633 
  990600    298.73669   -1503.1247    489.49518    322.97699   -358.58698    39062.633 
  990700    301.80604    -1537.098    506.03151    319.27286   -361.05904    39062.633 
  990800    308.82743   -1535.5933    460.95433    307.11537   -568.00907    39062.633 
  990900    297.02878   -1516.1285    478.96115    291.79764   -969.28894    39062.633 
  991000    299.11022    -1548.706    501.88463    291.45639   -522.21885    39062.633 
  991100     296.0046   -1573.4486    469.86373    220.79764   -203.45549    39062.633 
  991200    309.96486   -1504.9215    476.22172    358.14367    179.25748    39062.633 
  991300    291.48825   -1518.2446    521.85306    307.78404   -176.47095    39062.633 
  991400    301.14408   -1529.5283     463.3128    281.16214   -456.29805    39062.633 
  991500     305.1522    -1525.615    491.58613    331.28181      34.3894    39062.633 
  991600    301.01661   -1529.6318    477.33765     294.5131   -382.27434    39062.633 
  991700    294.26822   -1490.1327    489.77248    316.25342    50.968212    39062.633 
  991800     297.3642   -1504.2194    495.57618    321.82248    293.49084    39062.633 
  991900    297.07206    -1505.378    485.04115    308.82169    89.311609    39062.633 
  992000    309.14587   -1496.0739    500.20875    387.31403    38.386377    39062.633 
  992100    298.00627   -1525.6291    510.80178    318.51108     108.4705    39062.633 
  992200    298.76566   -1509.5077    506.18533    333.41374    43.106832    39062.633 
  992300    311.24338   -1512.2264    487.89332    368.23073   -64.075025    39062.633 
  992400     294.8854    -1472.902    491.73482     338.2079   -324.18759    39062.633 
  992500    302.10802   -1483.7866    485.38029    353.28413    -27.61549    39062.633 
  992600    303.62842   -1504.8217    478.20802    331.87932   -618.35514    39062.633 
  992700    311.91193    -1501.166    437.00402    331.39314   -733.93312    39062.633 
  992800    299.20098   -1526.9775    503.09684     314.8031   -330.25199    39062.633 
  992900    293.50803   -1521.6205    493.27703    284.86893   -189.45549    39062.633 
  993000    298.29021   -1511.2405    502.55399     325.9223    63.024329    39062.633 
  993100    301.06102   -1519.8159    498.80842    325.99851    150.80366    39062.633 
  993200    303.24755   -1532.6144    478.18798    302.36251    647.40699    39062.633 
  993300    290.91458   -1544.4253     466.5822    223.76567    680.95633    39062.633 
  993400    309.31621   -1509.2152    494.81836    369.54453    532.71657    39062.633 
  993500    312.50228   -1515.8525    491.03746    373.38131    361.29823    39062.633 
  993600    295.96804   -1516.3913    492.94864    300.77628    257.05503    39062.633 
  993700    308.31905   -1518.5702    488.02441    348.93403    375.90216    39062.633 
  993800    310.36086   -1482.7001    490.10347    396.01868   -284.55473    39062.633 
  993900     306.8908   -1508.6837    477.80703    342.21286    313.92737    39062.633 
  994000    291.83066   -1485.0153    516.47532    337.16755    784.14034    39062.633 
  994100    299.05693   -1502.4408    475.54929    311.14774    335.80573    39062.633 
  994200    298.38496    -1511.142    512.80478    336.69548    489.90663    39062.633 
  994300    315.52925   -1521.8294    487.83537    377.74563   -78.651673    39062.633 
  994400    301.53843   -1487.3714    494.15524    355.92578   -113.18516    39062.633 
  994500    300.84534   -1506.9191    474.76096    313.88285   -410.39352    39062.633 
  994600    305.12592   -1520.8243    508.33441     352.7032    127.86211    39062.633 
  994700    304.35614    -1509.637    488.53061    340.64255    2.1532109    39062.633 
  994800    302.80202   -1509.8205    463.46726    308.44231    116.50056    39062.633 
  994900    292.64263   -1472.5642    507.97751    344.75376     171.3741    39062.633 
  995000    309.31783   -1516.3431    502.02057    369.62601    449.59476    39062.633 
  995100    287.00203   -1521.0479    503.00618    266.06159   -76.849716    39062.633 
  995200     294.8061   -1532.6539    479.59861    265.96492    62.803544    39062.633 
  995300    295.81119    -1493.953    477.53573    307.09993    306.20332    39062.633 
  995400    298.72812   -1504.8915    511.36048    343.03714    709.68119    39062.633 
  995500    307.06436   -1525.5632    498.44918    346.75207    230.39916    39062.633 
  995600    308.90764   -1551.9167    455.84854    286.04513     56.61821    39062.633 
  995700    308.55072   -1552.2109    475.95097    304.25647    59.083349    39062.633 
  995800    309.73886   -1510.5241    516.08101    391.38928    604.90654    39062.633 
  995900    297.95187   -1498.1943    484.81871    319.71941    544.28143    39062.633 
  996000    284.60928   -1534.7177    487.96321    226.64316   -16.209286    39062.633 
  996100     295.3464   -1529.6128    488.96328     280.7881    670.39762    39062.633 
  996200    296.35939   -1505.0526    489.30534    310.22267    438.91379    39062.633 
  996300    296.61532   -1568.6393    475.38099     233.8568    229.81355    39062.633 
  996400    302.87189   -1530.9504    477.60488    301.76266    349.19958    39062.633 
  996500    306.14414    -1560.634    473.47031    282.58517   -246.65166    39062.633 
  996600    301.74284    -1535.141    488.66226    303.57786   -244.70616    39062.633 
  996700    294.90811   -1511.3195    481.14517    289.30237   -19.148364    39062.633 
  996800    304.94537   -1511.5088    482.05928    334.93582   -250.86032    39062.633 
  996900    294.70754   -1500.8431    477.69306    295.42927    60.804503    39062.633 
  997000    297.39289    -1522.749    470.47368     278.3187     39.57988    39062.633 
  997100    306.44774   -1512.4903    492.38303    350.99989     537.4288    39062.633 
  997200     294.6829   -1535.5863    475.31965    258.20235    81.113836    39062.633 
  997300    294.86011   -1553.1942    458.10845     224.1761    319.27044    39062.633 
  997400     293.0573   -1541.3181    487.44079    257.31849    218.44693    39062.633 
  997500    293.00874    -1525.817    483.41384    268.57531    368.57501    39062.633 
  997600    302.63606   -1570.9825    468.61681    251.68735   -225.77044    39062.633 
  997700    300.09878   -1605.8935    461.11958    197.92682   -265.18047    39062.633 
  997800     302.7829   -1565.8612      459.564    248.41282   -102.53784    39062.633 
  997900    302.40548   -1554.6454    449.87474    248.25071   -417.07932    39062.633 
  998000    296.57731    -1547.216      476.502    256.23099   -477.50512    39062.633 
  998100    301.16296   -1540.9224    455.42015    261.95987   -155.79835    39062.633 
  998200    292.22282   -1574.5447    433.47218    166.38959   -33.627145    39062.633 
  998300    303.28802   -1539.4749    495.13863    312.63377   -308.88537    39062.633 
  998400    293.29671   -1476.3601    490.93419    326.84102   -423.96696    39062.633 
  998500    298.56579    -1473.683    475.82742    337.98622    654.95345    39062.633 
  998600    310.12743    -1494.754    471.44267    364.25959    464.17935    39062.633 
  998700    306.09589   -1480.3041    477.97492    367.20381    761.32164    39062.633 
  998800    291.46274   -1485.4127    465.52387    284.17251    661.45016    39062.633 
  998900    308.64828   -1511.0906    517.87276    387.73507    693.13042    39062.633 
  999000    296.09283   -1533.9309    456.81816    247.66457    490.27907    39062.633 
  999100    299.54283   -1541.7772    482.05834    280.49442    381.14932    39062.633 
  999200    297.17613   -1539.5739    487.71077    277.76107    223.35153    39062.633 
  999300    296.26108    -1541.259    443.43975     227.7109   -176.90591    39062.633 
  999400    314.94817   -1493.0852    481.24014    397.29471    76.704249    39062.633 
  999500    292.73376   -1463.5879    501.12853    347.28888    634.36085    39062.633 
  999600    306.39104   -1492.3323    497.33722    375.85838     492.0265    39062.633 
  999700     302.7063    -1508.382     481.1415    327.12672    794.11104    39062.633 
  999800    294.31128   -1521.0739    494.33149    290.06388    705.22697    39062.633 
  999900    288.30183   -1529.1457    489.76197    250.53512    555.92207    39062.633 
 1000000    301.01183   -1528.9857    478.42384    296.22408    613.50903    39062.633 
 1000100    297.84854    -1478.294    496.93738    351.27615    680.66844    39062.633 
 1000200     292.2647   -1489.8309    484.80307    302.62169    698.32842    39062.633 
 1000300    305.74461   -1483.0298    485.18881    370.12024     376.9088    39062.633 
 1000400      312.618   -1487.7293    480.79688    391.78174    89.239165    39062.633 
 1000500    305.61742   -1504.2862    483.84189    346.94791    697.64871    39062.633 
 1000600    309.29408   -1519.0838    472.10337    336.86184    458.49617    39062.633 
 1000700    302.39446   -1440.9953    474.67114    386.64788    147.37277    39062.633 
 1000800    301.78571   -1483.1588    484.91926     352.0088    282.69884    39062.633 
 1000900    300.81868    -1527.613    484.90311    303.21184    486.24874    39062.633 
 1001000    307.93158   -1521.8851    487.44242    343.30357    361.71637    39062.633 
 1001100    299.67891   -1499.6729    486.87769    328.02691    92.245434    39062.633 
 1001200    294.35917   -1514.7799    472.78607    275.02675   -135.49245    39062.633 
 1001300     301.0005   -1518.2922    457.83702    286.28006    367.24882    39062.633 
 1001400    301.02491   -1508.6515    484.84424    323.03713    -82.86981    39062.633 
 1001500    294.96325    -1475.373    465.47242    309.82274    86.871827    39062.633 
 1001600    309.41903   -1471.7057    467.07476    379.77042   -210.78841    39062.633 
 1001700    294.04606   -1477.1289    476.29611    314.78692   -599.44818    39062.633 
 1001800    305.43327   -1471.8673    461.14575     355.8467   -611.38741    39062.633 
 1001900     294.9879   -1507.9854    490.21914    302.06737   -254.71483    39062.633 
 1002000    300.85072   -1451.4101    490.40668    385.06161   -603.03939    39062.633 
 1002100    297.06088   -1441.2459     488.7747    376.63736    -149.2066    39062.633 
 1002200    310.94641   -1465.3421    488.63478    414.52788    15.189384    39062.633 
 1002300    291.68596   -1502.0327    489.88274    292.91012    504.64191    39062.633 
 1002400    303.47906   -1442.1283    472.25773    387.95422    486.85368    39062.633 
 1002500    297.77262    -1483.931    501.82841    350.19046    422.27349    39062.633 
 1002600    304.29559     -1510.11    461.52428     312.8924   -115.59095    39062.633 
 1002700    292.51685   -1509.9296    468.82113    267.66923     377.7626    39062.633 
 1002800    300.08188   -1515.9026    474.93883    301.66137    5.7554474    39062.633 
 1002900    301.11622   -1533.1416    500.63799    314.74935    126.49738    39062.633 
 1003000    293.80979   -1499.1663    475.57542    290.97171   -604.92371    39062.633 
 1003100    299.88594   -1498.6832    486.97732    330.04258   -239.30502    39062.633 
 1003200    290.32155   -1494.5763    473.31488    277.69409   -481.96942    39062.633 
 1003300    305.52482   -1460.8139    473.18695      379.351   -267.14124    39062.633 
 1003400    296.28028   -1459.0508    494.80528    361.37047   -508.05447    39062.633 
 1003500    302.57322   -1489.6053    466.87797    331.04452   -225.06473    39062.633 
 1003600    309.70067   -1491.6963    473.76502    367.73021    159.87686    39062.633 
 1003700    301.27066   -1471.2804    481.12081    357.78437   -394.91882    39062.633 
 1003800    299.90677   -1505.9133    473.57712    309.50547   -422.92384    39062.633 
 1003900    291.92437   -1535.6729    477.05963    247.51352   -302.22928    39062.633 
 1004000    301.57572   -1501.1124    486.55437     334.7508   -242.70227    39062.633 
 1004100    295.37026   -1493.6804    498.44823    326.31224    378.59638    39062.633 
 1004200    289.96707   -1515.4405    467.79815    249.72709    -48.30639    39062.633 
 1004300    299.20617    -1518.864    476.29569    296.13873   -111.44808    39062.633 
 1004400    293.83333   -1469.4379    479.47358    324.70357   -392.63414    39062.633 
 1004500    299.46567   -1485.2833    480.35133    334.93607   -122.12567    39062.633 
 1004600    303.43634   -1476.0035    491.77032    373.40048   -351.89207    39062.633 
 1004700    309.41708   -1461.6946    478.10311    400.80116    51.606588    39062.633 
 1004800    300.63813    -1519.956    447.86766    273.02555     118.9836    39062.633 
 1004900    296.29712   -1547.5154    479.23027    257.40628    -201.4877    39062.633 
 1005000    304.98262   -1545.0413    484.84481    304.35544    309.86367    39062.633 
 1005100    304.33506    -1482.687    479.40866    358.37638   -197.38862    39062.633 
 1005200    294.61133   -1482.1857    463.11363    299.07673   -391.77624    39062.633 
 1005300      302.491   -1520.6078    468.52954    301.32572    137.83202    39062.633 
 1005400    305.64762     -1475.74    456.95619    348.74348    239.71975    39062.633 
 1005414    287.51193   -1501.0759    496.62729    281.93603   -516.12001    39062.633 
Loop time of 614.161 on 32 procs for 1000000 steps with 1502 atoms

Performance: 140.680 ns/day, 0.171 hours/ns, 1628.238 timesteps/s
100.0% CPU use with 32 MPI tasks x no OpenMP threads

MPI task timing breakdown:
Section |  min time  |  avg time  |  max time  |%varavg| %total
---------------------------------------------------------------
Pair    | 218.33     | 267.36     | 319.29     | 153.2 | 43.53
Bond    | 1.3128     | 1.4685     | 1.6612     |   6.5 |  0.24
Neigh   | 39.542     | 39.637     | 39.724     |   0.9 |  6.45
Comm    | 242.86     | 294.61     | 343.35     | 145.1 | 47.97
Output  | 0.3878     | 0.40456    | 0.83269    |  12.1 |  0.07
Modify  | 7.517      | 7.9361     | 8.3476     |  10.1 |  1.29
Other   |            | 2.74       |            |       |  0.45

Nlocal:        46.9375 ave          78 max          14 min
Histogram: 3 4 3 1 1 6 6 3 2 3
Nghost:        1936.03 ave        1988 max        1885 min
Histogram: 3 3 3 4 4 5 2 2 2 4
Neighs:        5201.06 ave       11919 max        1150 min
Histogram: 7 3 4 2 5 6 1 3 0 1

Total # of neighbors = 166434
Ave neighs/atom = 110.80826
Ave special neighs/atom = 1.9986684
Neighbor list builds = 49640
Dangerous builds = 0

# Output the system volume
variable v equal vol
print 'The system volume is $v'
The system volume is 39062.6332967067

# Outputs
variable A equal xhi-xlo
variable B equal yhi-ylo
variable C equal zhi-zlo
variable D equal xy
variable E equal xz
variable F equal yz
print 'Lattice vectors'
Lattice vectors
print '$A 0 0'
33.9302588018382 0 0
print '$D $B 0'
0 33.9302588018382 0
print '$E $F $C'
0 0 33.9302588018382
Total wall time: 0:10:18
