LAMMPS data file
 1516 atoms
 1015 bonds
 524 angles
 26 dihedrals
 4 impropers
 7 atom types
 9 bond types
 4 angle types
 2 dihedral types
 1 improper types
 0 15 xlo xhi
 0 15 ylo yhi
 0 15 zlo zhi
 0 0 0 xy xz yz

# Atom types
#
# 1 O_2
# 2 N_2
# 3 C_3
# 4 C_2
# 5 H_
# 6 H__HB
# 7 O_3

# Bond Coeffs
#
# 1 O_2*C_2
# 2 N_2*C_3
# 3 N_2*C_2
# 4 C_3*C_2
# 5 C_3*H_
# 6 C_2*C_2
# 7 C_2*H_
# 8 N_2*H__HB
# 9 O_3*H__HB

# Angle Coeffs
#
# 1 N_2
# 2 C_3
# 3 C_2
# 4 O_3

# Dihedral Coeffs
#
# 1 B1
# 2 C1

# Inversion Coeffs
#
# 1 1

 Masses

 1 16
 2 14.01
 3 12.01
 4 12.01
 5 1.01
 6 1.01
 7 16

 Atoms # full

1 1 1 0 3.13920569043343 13.2161957646216 11.4037008832119
2 1 2 0 2.31807887421862 14.632443849197 9.81073196806341
3 1 3 0 1.27073752556604 15.0236538099886 8.87888964450218
4 1 4 0 1.06830023796447 14.0309256088448 7.83431621805373
5 1 4 0 -0.121525296187322 13.5072415506588 7.51407458196891
6 1 4 0 2.14930768386409 13.6455108608419 10.7578643832002
7 1 3 0 0.854765675906805 12.9969589923787 11.1169942949965
8 1 5 0 1.51578235407799 15.9582882788005 8.36189888856128
9 1 5 0 0.350901083084332 15.2424815815872 9.42327232741908
10 1 5 0 1.86431095123118 13.7301324447535 7.31906261369899
11 1 5 0 -0.19108470736471 12.8346620662342 6.78766828006356
12 1 5 0 -0.949434970923858 13.778031890436 7.98820414481122
13 1 5 0 0.399420262699883 12.5903628121457 10.2133552293893
14 1 5 0 1.03083843019525 12.1380359307401 11.7725526672126
15 1 5 0 -0.0724252448607969 13.9082534675928 11.8453777008278
16 1 6 0 3.51486368463459 15.2839979949629 9.71029978849508
17 2 6 0 2.19261779260822 8.86665492126718 13.6201600288041
18 2 7 0 3.15261779260822 8.86665492126718 13.6201600288041
19 2 6 0 3.39261779260822 7.93665492126718 13.6201600288041
20 3 6 0 -0.687556128976867 5.15711008612066 10.1545536972117
21 3 7 0 0.272443871023133 5.15711008612066 10.1545536972117
22 3 6 0 0.512443871023133 4.22711008612066 10.1545536972117
23 4 6 0 3.62519047150388 10.5779814386647 3.14863358507864
24 4 7 0 4.58519047150388 10.5779814386647 3.14863358507864
25 4 6 0 4.82519047150388 9.64798143866472 3.14863358507864
26 5 6 0 0.134689887491986 7.23827090155333 7.10787966731004
27 5 7 0 1.09468988749199 7.23827090155333 7.10787966731004
28 5 6 0 1.33468988749199 6.30827090155333 7.10787966731004
29 6 6 0 0.301413083653897 10.2950564647932 8.15370190772228
30 6 7 0 1.2614130836539 10.2950564647932 8.15370190772228
31 6 6 0 1.5014130836539 9.36505646479316 8.15370190772228
32 7 6 0 12.4268393595424 0.758210610775277 14.0174348163418
33 7 7 0 13.3868393595424 0.758210610775277 14.0174348163418
34 7 6 0 13.6268393595424 -0.171789389224723 14.0174348163418
35 8 6 0 0.24060742624104 11.6279775280878 13.4778074431233
36 8 7 0 1.20060742624104 11.6279775280878 13.4778074431233
37 8 6 0 1.44060742624104 10.6979775280878 13.4778074431233
38 9 6 0 2.55637498034164 1.5115381641686 2.02242923201993
39 9 7 0 3.51637498034164 1.5115381641686 2.02242923201993
40 9 6 0 3.75637498034164 0.581538164168596 2.02242923201993
41 10 6 0 11.253162466893 4.91206992458552 5.94272746006027
42 10 7 0 12.213162466893 4.91206992458552 5.94272746006027
43 10 6 0 12.453162466893 3.98206992458552 5.94272746006027
44 11 6 0 12.2225627365708 6.0445979870297 3.07017051964067
45 11 7 0 13.1825627365708 6.0445979870297 3.07017051964067
46 11 6 0 13.4225627365708 5.1145979870297 3.07017051964067
47 12 6 0 1.59743603479117 9.00566041743383 6.03034242172725
48 12 7 0 2.55743603479117 9.00566041743383 6.03034242172725
49 12 6 0 2.79743603479117 8.07566041743383 6.03034242172725
50 13 6 0 13.3176952069346 7.92685493751429 3.10181185486726
51 13 7 0 14.2776952069346 7.92685493751429 3.10181185486726
52 13 6 0 14.5176952069346 6.99685493751429 3.10181185486726
53 14 6 0 7.18526705794036 0.875908669959754 0.921553100924939
54 14 7 0 8.14526705794036 0.875908669959754 0.921553100924939
55 14 6 0 8.38526705794036 -0.0540913300402463 0.921553100924939
56 15 6 0 9.41223840971477 14.1225906162895 2.42486509261653
57 15 7 0 10.3722384097148 14.1225906162895 2.42486509261653
58 15 6 0 10.6122384097148 13.1925906162895 2.42486509261653
59 16 6 0 9.91356620259583 11.9970672267396 12.2836629697122
60 16 7 0 10.8735662025958 11.9970672267396 12.2836629697122
61 16 6 0 11.1135662025958 11.0670672267396 12.2836629697122
62 17 6 0 10.1781335826684 7.17054096440785 0.485288664931431
63 17 7 0 11.1381335826684 7.17054096440785 0.485288664931431
64 17 6 0 11.3781335826684 6.24054096440785 0.485288664931431
65 18 6 0 10.1734695250355 14.1135854347982 11.1593555146828
66 18 7 0 11.1334695250355 14.1135854347982 11.1593555146828
67 18 6 0 11.3734695250355 13.1835854347982 11.1593555146828
68 19 6 0 7.00245169733651 10.5014742519148 5.14770469162613
69 19 7 0 7.96245169733651 10.5014742519148 5.14770469162613
70 19 6 0 8.20245169733651 9.57147425191477 5.14770469162613
71 20 6 0 2.28124970264733 9.13529209950008 10.3882622276433
72 20 7 0 3.24124970264733 9.13529209950008 10.3882622276433
73 20 6 0 3.48124970264733 8.20529209950008 10.3882622276433
74 21 6 0 5.86310479600914 1.30585089134052 10.9093476331327
75 21 7 0 6.82310479600914 1.30585089134052 10.9093476331327
76 21 6 0 7.06310479600914 0.375850891340524 10.9093476331327
77 22 6 0 11.2348234040849 7.91720095131546 4.32648020214401
78 22 7 0 12.1948234040849 7.91720095131546 4.32648020214401
79 22 6 0 12.4348234040849 6.98720095131546 4.32648020214401
80 23 6 0 2.58758593976498 14.8395535062905 1.41406922251917
81 23 7 0 3.54758593976498 14.8395535062905 1.41406922251917
82 23 6 0 3.78758593976498 13.9095535062905 1.41406922251917
83 24 6 0 3.133037240915 13.0905663750041 8.77562781446613
84 24 7 0 4.093037240915 13.0905663750041 8.77562781446613
85 24 6 0 4.333037240915 12.1605663750041 8.77562781446613
86 25 6 0 1.16770080800168 1.17715276818722 9.86887174774893
87 25 7 0 2.12770080800168 1.17715276818722 9.86887174774893
88 25 6 0 2.36770080800168 0.247152768187225 9.86887174774893
89 26 6 0 2.11478979254141 8.49078367970884 1.17253821459599
90 26 7 0 3.07478979254141 8.49078367970884 1.17253821459599
91 26 6 0 3.31478979254141 7.56078367970884 1.17253821459599
92 27 6 0 5.4414954052493 9.61142656317912 12.2120722616091
93 27 7 0 6.4014954052493 9.61142656317912 12.2120722616091
94 27 6 0 6.6414954052493 8.68142656317912 12.2120722616091
95 28 6 0 11.8589627234917 13.6362140012812 13.122386316536
96 28 7 0 12.8189627234917 13.6362140012812 13.122386316536
97 28 6 0 13.0589627234917 12.7062140012812 13.122386316536
98 29 6 0 8.95202925123274 13.5636344276741 5.46160625992343
99 29 7 0 9.91202925123274 13.5636344276741 5.46160625992343
100 29 6 0 10.1520292512327 12.6336344276741 5.46160625992343
101 30 6 0 1.18767536871135 1.46287960623391 8.26963742030784
102 30 7 0 2.14767536871135 1.46287960623391 8.26963742030784
103 30 6 0 2.38767536871135 0.53287960623391 8.26963742030784
104 31 6 0 8.24585821523331 3.89431524480693 10.9457347879652
105 31 7 0 9.20585821523331 3.89431524480693 10.9457347879652
106 31 6 0 9.44585821523331 2.96431524480693 10.9457347879652
107 32 6 0 8.6964185563568 14.5659692345094 9.9621427024249
108 32 7 0 9.6564185563568 14.5659692345094 9.9621427024249
109 32 6 0 9.8964185563568 13.6359692345094 9.9621427024249
110 33 6 0 10.740042122053 9.81552192749456 12.8382869646885
111 33 7 0 11.700042122053 9.81552192749456 12.8382869646885
112 33 6 0 11.940042122053 8.88552192749456 12.8382869646885
113 34 6 0 6.19817258368246 14.1404658175912 10.736144419061
114 34 7 0 7.15817258368246 14.1404658175912 10.736144419061
115 34 6 0 7.39817258368246 13.2104658175912 10.736144419061
116 35 6 0 3.46873963644728 11.286016522618 14.5373398822267
117 35 7 0 4.42873963644728 11.286016522618 14.5373398822267
118 35 6 0 4.66873963644728 10.356016522618 14.5373398822267
119 36 6 0 -0.314951322069392 5.95274547388777 1.4699603500776
120 36 7 0 0.645048677930608 5.95274547388777 1.4699603500776
121 36 6 0 0.885048677930608 5.02274547388777 1.4699603500776
122 37 6 0 13.8217033403646 14.2420343255531 7.45606772485189
123 37 7 0 14.7817033403646 14.2420343255531 7.45606772485189
124 37 6 0 15.0217033403646 13.3120343255531 7.45606772485189
125 38 6 0 0.602337723104283 8.14402993693017 12.596923308447
126 38 7 0 1.56233772310428 8.14402993693017 12.596923308447
127 38 6 0 1.80233772310428 7.21402993693016 12.596923308447
128 39 6 0 8.89309976759367 7.86054056411609 8.8783995481208
129 39 7 0 9.85309976759367 7.86054056411609 8.8783995481208
130 39 6 0 10.0930997675937 6.93054056411609 8.8783995481208
131 40 6 0 0.756884064031765 5.45178719371557 3.1351691368036
132 40 7 0 1.71688406403176 5.45178719371557 3.1351691368036
133 40 6 0 1.95688406403176 4.52178719371557 3.1351691368036
134 41 6 0 4.16232092815451 3.40383076033555 1.56848223530687
135 41 7 0 5.12232092815451 3.40383076033555 1.56848223530687
136 41 6 0 5.36232092815451 2.47383076033555 1.56848223530687
137 42 6 0 11.3675054597855 13.9067671463732 5.77654035645537
138 42 7 0 12.3275054597855 13.9067671463732 5.77654035645537
139 42 6 0 12.5675054597855 12.9767671463732 5.77654035645537
140 43 6 0 12.6140730797499 8.40363488806412 8.83077377686277
141 43 7 0 13.5740730797499 8.40363488806412 8.83077377686277
142 43 6 0 13.8140730797499 7.47363488806412 8.83077377686277
143 44 6 0 11.3239657964744 13.3639746338036 9.14898934657685
144 44 7 0 12.2839657964744 13.3639746338036 9.14898934657685
145 44 6 0 12.5239657964744 12.4339746338036 9.14898934657685
146 45 6 0 5.41009882858023 9.82724634505808 4.09691164037213
147 45 7 0 6.37009882858023 9.82724634505808 4.09691164037213
148 45 6 0 6.61009882858023 8.89724634505808 4.09691164037213
149 46 6 0 2.26287095502019 12.2324224204663 0.861267282161862
150 46 7 0 3.22287095502019 12.2324224204663 0.861267282161862
151 46 6 0 3.46287095502019 11.3024224204663 0.861267282161862
152 47 6 0 11.2292736761458 4.11098666297272 8.05146133876406
153 47 7 0 12.1892736761458 4.11098666297272 8.05146133876406
154 47 6 0 12.4292736761458 3.18098666297272 8.05146133876406
155 48 6 0 10.3046726532932 4.23948547843844 7.98172140028328
156 48 7 0 11.2646726532932 4.23948547843844 7.98172140028328
157 48 6 0 11.5046726532932 3.30948547843844 7.98172140028328
158 49 6 0 9.637824760722 5.97973041393794 13.3626922743861
159 49 7 0 10.597824760722 5.97973041393794 13.3626922743861
160 49 6 0 10.837824760722 5.04973041393794 13.3626922743861
161 50 6 0 2.00463242174126 13.4342521072272 7.96492497785948
162 50 7 0 2.96463242174126 13.4342521072272 7.96492497785948
163 50 6 0 3.20463242174126 12.5042521072272 7.96492497785948
164 51 6 0 9.59469205627218 8.0334618877992 3.57756731682457
165 51 7 0 10.5546920562722 8.0334618877992 3.57756731682457
166 51 6 0 10.7946920562722 7.1034618877992 3.57756731682457
167 52 6 0 7.31259316133335 1.98972056427971 0.52324325311929
168 52 7 0 8.27259316133335 1.98972056427971 0.52324325311929
169 52 6 0 8.51259316133335 1.05972056427971 0.52324325311929
170 53 6 0 8.29850787224248 12.6626884696912 12.3562648461666
171 53 7 0 9.25850787224248 12.6626884696912 12.3562648461666
172 53 6 0 9.49850787224248 11.7326884696912 12.3562648461666
173 54 6 0 7.25744832350872 3.21761671611108 0.772474722471088
174 54 7 0 8.21744832350872 3.21761671611108 0.772474722471088
175 54 6 0 8.45744832350872 2.28761671611108 0.772474722471088
176 55 6 0 2.87203721978702 13.4756252127141 1.69360867934301
177 55 7 0 3.83203721978702 13.4756252127141 1.69360867934301
178 55 6 0 4.07203721978702 12.5456252127141 1.69360867934301
179 56 6 0 0.4384657500498 4.12064373650588 2.25225608912297
180 56 7 0 1.3984657500498 4.12064373650588 2.25225608912297
181 56 6 0 1.6384657500498 3.19064373650588 2.25225608912297
182 57 6 0 7.74746895345859 6.6363165904209 11.0249576659407
183 57 7 0 8.70746895345859 6.6363165904209 11.0249576659407
184 57 6 0 8.94746895345859 5.7063165904209 11.0249576659407
185 58 6 0 1.04851139520295 6.98185819125734 6.63799880538136
186 58 7 0 2.00851139520295 6.98185819125734 6.63799880538136
187 58 6 0 2.24851139520295 6.05185819125734 6.63799880538136
188 59 6 0 11.9775114864763 8.86344707262702 13.5343707015272
189 59 7 0 12.9375114864763 8.86344707262702 13.5343707015272
190 59 6 0 13.1775114864763 7.93344707262702 13.5343707015272
191 60 6 0 11.0951287198998 6.63319828146137 14.8559626343194
192 60 7 0 12.0551287198998 6.63319828146137 14.8559626343194
193 60 6 0 12.2951287198998 5.70319828146137 14.8559626343194
194 61 6 0 4.86979343972169 1.94306329050101 13.6699399736244
195 61 7 0 5.82979343972169 1.94306329050101 13.6699399736244
196 61 6 0 6.06979343972169 1.01306329050101 13.6699399736244
197 62 6 0 9.02275694112293 13.9535505922418 3.45253916457295
198 62 7 0 9.98275694112293 13.9535505922418 3.45253916457295
199 62 6 0 10.2227569411229 13.0235505922418 3.45253916457295
200 63 6 0 9.68718960226513 3.42632568249479 8.11684209736995
201 63 7 0 10.6471896022651 3.42632568249479 8.11684209736995
202 63 6 0 10.8871896022651 2.49632568249479 8.11684209736995
203 64 6 0 11.7795101883542 0.420654449090362 4.90140795009211
204 64 7 0 12.7395101883542 0.420654449090362 4.90140795009211
205 64 6 0 12.9795101883542 -0.509345550909639 4.90140795009211
206 65 6 0 5.99444196836092 12.2167772419658 13.9129906799644
207 65 7 0 6.95444196836092 12.2167772419658 13.9129906799644
208 65 6 0 7.19444196836092 11.2867772419658 13.9129906799644
209 66 6 0 3.37368817345239 14.3328765609208 11.4413625898305
210 66 7 0 4.33368817345239 14.3328765609208 11.4413625898305
211 66 6 0 4.57368817345239 13.4028765609209 11.4413625898305
212 67 6 0 10.2166326732561 12.3020117675792 3.46756632439792
213 67 7 0 11.1766326732561 12.3020117675792 3.46756632439792
214 67 6 0 11.4166326732561 11.3720117675792 3.46756632439792
215 68 6 0 4.32530265927315 14.8308482432645 5.99529579514638
216 68 7 0 5.28530265927315 14.8308482432645 5.99529579514638
217 68 6 0 5.52530265927315 13.9008482432645 5.99529579514638
218 69 6 0 -0.331158804036677 1.44434767583385 0.488900060299784
219 69 7 0 0.628841195963323 1.44434767583385 0.488900060299784
220 69 6 0 0.868841195963323 0.514347675833851 0.488900060299784
221 70 6 0 6.50309799981304 7.75699761155061 13.4332512086257
222 70 7 0 7.46309799981304 7.75699761155061 13.4332512086257
223 70 6 0 7.70309799981304 6.82699761155061 13.4332512086257
224 71 6 0 10.9925004704576 12.7257579708844 2.18844258924946
225 71 7 0 11.9525004704576 12.7257579708844 2.18844258924946
226 71 6 0 12.1925004704576 11.7957579708844 2.18844258924946
227 72 6 0 -0.102058916380629 12.5564823245537 10.5582149222028
228 72 7 0 0.857941083619371 12.5564823245537 10.5582149222028
229 72 6 0 1.09794108361937 11.6264823245537 10.5582149222028
230 73 6 0 13.0152656666189 2.55282660870813 1.74482830334455
231 73 7 0 13.9752656666189 2.55282660870813 1.74482830334455
232 73 6 0 14.2152656666189 1.62282660870813 1.74482830334455
233 74 6 0 9.86612363180146 5.6854385036882 7.03507028985769
234 74 7 0 10.8261236318015 5.6854385036882 7.03507028985769
235 74 6 0 11.0661236318015 4.7554385036882 7.03507028985769
236 75 6 0 6.27629047187045 6.58631127019413 1.60850456915796
237 75 7 0 7.23629047187045 6.58631127019413 1.60850456915796
238 75 6 0 7.47629047187045 5.65631127019413 1.60850456915796
239 76 6 0 11.9993547366187 8.88951761689037 10.7717210717965
240 76 7 0 12.9593547366187 8.88951761689037 10.7717210717965
241 76 6 0 13.1993547366187 7.95951761689037 10.7717210717965
242 77 6 0 10.3275108528044 3.35650417761877 2.32381861307658
243 77 7 0 11.2875108528044 3.35650417761877 2.32381861307658
244 77 6 0 11.5275108528044 2.42650417761877 2.32381861307658
245 78 6 0 8.61965420234017 10.8967988604587 4.28039370453916
246 78 7 0 9.57965420234017 10.8967988604587 4.28039370453916
247 78 6 0 9.81965420234017 9.96679886045866 4.28039370453916
248 79 6 0 2.3723749145586 14.2534352540411 8.8111932144966
249 79 7 0 3.3323749145586 14.2534352540411 8.8111932144966
250 79 6 0 3.5723749145586 13.3234352540411 8.8111932144966
251 80 6 0 0.201374178724363 13.8305308662262 11.1187168036122
252 80 7 0 1.16137417872436 13.8305308662262 11.1187168036122
253 80 6 0 1.40137417872436 12.9005308662262 11.1187168036122
254 81 6 0 4.2954275377281 10.9393769588228 14.5824531884864
255 81 7 0 5.2554275377281 10.9393769588228 14.5824531884864
256 81 6 0 5.4954275377281 10.0093769588228 14.5824531884864
257 82 6 0 8.54401261473074 3.01403565489687 14.3146744917613
258 82 7 0 9.50401261473075 3.01403565489687 14.3146744917613
259 82 6 0 9.74401261473075 2.08403565489687 14.3146744917613
260 83 6 0 6.99289938013069 3.94350317231379 3.14448182587512
261 83 7 0 7.95289938013069 3.94350317231379 3.14448182587512
262 83 6 0 8.19289938013069 3.01350317231379 3.14448182587512
263 84 6 0 9.1565938624274 6.51623484719545 13.1997164804488
264 84 7 0 10.1165938624274 6.51623484719545 13.1997164804488
265 84 6 0 10.3565938624274 5.58623484719545 13.1997164804488
266 85 6 0 9.32847952513955 12.2202017662954 2.28586626355536
267 85 7 0 10.2884795251396 12.2202017662954 2.28586626355536
268 85 6 0 10.5284795251396 11.2902017662954 2.28586626355536
269 86 6 0 7.96253328488208 7.55326913361438 7.92921866755933
270 86 7 0 8.92253328488208 7.55326913361438 7.92921866755933
271 86 6 0 9.16253328488208 6.62326913361438 7.92921866755933
272 87 6 0 11.1929804580007 7.68142840516753 2.82520903623663
273 87 7 0 12.1529804580007 7.68142840516753 2.82520903623663
274 87 6 0 12.3929804580007 6.75142840516753 2.82520903623663
275 88 6 0 5.72186640973203 13.1878228443116 8.62192046362907
276 88 7 0 6.68186640973203 13.1878228443116 8.62192046362907
277 88 6 0 6.92186640973203 12.2578228443116 8.62192046362907
278 89 6 0 -0.20490270995535 10.066398149766 6.0735124675557
279 89 7 0 0.75509729004465 10.066398149766 6.0735124675557
280 89 6 0 0.99509729004465 9.13639814976603 6.0735124675557
281 90 6 0 14.021914824117 1.22649564565159 1.7440185311716
282 90 7 0 14.981914824117 1.22649564565159 1.7440185311716
283 90 6 0 15.221914824117 0.296495645651594 1.7440185311716
284 91 6 0 4.35702392642386 9.70349165884778 4.01462226407602
285 91 7 0 5.31702392642386 9.70349165884778 4.01462226407602
286 91 6 0 5.55702392642386 8.77349165884778 4.01462226407602
287 92 6 0 10.9639890705887 13.8903178744391 2.92204161174595
288 92 7 0 11.9239890705887 13.8903178744391 2.92204161174595
289 92 6 0 12.1639890705887 12.9603178744391 2.92204161174595
290 93 6 0 12.2700432948489 6.24918254366144 0.453957886202261
291 93 7 0 13.2300432948489 6.24918254366144 0.453957886202261
292 93 6 0 13.4700432948489 5.31918254366145 0.453957886202261
293 94 6 0 9.75908670734614 1.68654798221774 4.38637970248237
294 94 7 0 10.7190867073461 1.68654798221774 4.38637970248237
295 94 6 0 10.9590867073461 0.756547982217744 4.38637970248237
296 95 6 0 3.76714622645639 3.76953241689131 8.08455793303438
297 95 7 0 4.72714622645639 3.76953241689131 8.08455793303438
298 95 6 0 4.96714622645639 2.83953241689131 8.08455793303438
299 96 6 0 6.38655477480032 14.9330462321546 14.8512490221765
300 96 7 0 7.34655477480032 14.9330462321546 14.8512490221765
301 96 6 0 7.58655477480032 14.0030462321546 14.8512490221765
302 97 6 0 12.5166888422985 13.987481507184 8.72949214302935
303 97 7 0 13.4766888422985 13.987481507184 8.72949214302935
304 97 6 0 13.7166888422985 13.057481507184 8.72949214302935
305 98 6 0 9.88340793337673 5.95591846079566 11.5458840702195
306 98 7 0 10.8434079333767 5.95591846079566 11.5458840702195
307 98 6 0 11.0834079333767 5.02591846079566 11.5458840702195
308 99 6 0 3.01777793138288 7.87244658259675 12.7772293786984
309 99 7 0 3.97777793138288 7.87244658259675 12.7772293786984
310 99 6 0 4.21777793138288 6.94244658259675 12.7772293786984
311 100 6 0 3.83297213746235 11.3041030840855 4.71223022905178
312 100 7 0 4.79297213746235 11.3041030840855 4.71223022905178
313 100 6 0 5.03297213746235 10.3741030840855 4.71223022905178
314 101 6 0 8.10773003540933 10.9862520363554 4.99124989262782
315 101 7 0 9.06773003540933 10.9862520363554 4.99124989262782
316 101 6 0 9.30773003540933 10.0562520363554 4.99124989262782
317 102 6 0 5.45689386592247 7.89047611569054 8.86090328916907
318 102 7 0 6.41689386592247 7.89047611569054 8.86090328916907
319 102 6 0 6.65689386592247 6.96047611569054 8.86090328916907
320 103 6 0 8.34272109830752 13.3431059510354 7.76375847053714
321 103 7 0 9.30272109830752 13.3431059510354 7.76375847053714
322 103 6 0 9.54272109830752 12.4131059510354 7.76375847053714
323 104 6 0 3.45149379733019 1.99106125318445 12.4653449328616
324 104 7 0 4.41149379733019 1.99106125318445 12.4653449328616
325 104 6 0 4.65149379733019 1.06106125318445 12.4653449328616
326 105 6 0 5.96351390515454 4.83668305602856 2.86333669326268
327 105 7 0 6.92351390515454 4.83668305602856 2.86333669326268
328 105 6 0 7.16351390515454 3.90668305602856 2.86333669326268
329 106 6 0 0.510760300531983 11.5641312444955 6.19161171256565
330 106 7 0 1.47076030053198 11.5641312444955 6.19161171256565
331 106 6 0 1.71076030053198 10.6341312444955 6.19161171256565
332 107 6 0 -0.669578151572496 14.6225018675346 7.9922396375332
333 107 7 0 0.290421848427504 14.6225018675346 7.9922396375332
334 107 6 0 0.530421848427504 13.6925018675346 7.9922396375332
335 108 6 0 1.96711350043304 10.6768299003039 1.61512737628073
336 108 7 0 2.92711350043304 10.6768299003039 1.61512737628073
337 108 6 0 3.16711350043304 9.74682990030386 1.61512737628073
338 109 6 0 5.07681539791636 6.73705291509628 9.77611572830938
339 109 7 0 6.03681539791636 6.73705291509628 9.77611572830938
340 109 6 0 6.27681539791636 5.80705291509628 9.77611572830938
341 110 6 0 4.98893751340918 13.0586868645065 6.85935118119232
342 110 7 0 5.94893751340918 13.0586868645065 6.85935118119232
343 110 6 0 6.18893751340918 12.1286868645065 6.85935118119232
344 111 6 0 12.955343755167 1.59646686207503 5.51774235558696
345 111 7 0 13.915343755167 1.59646686207503 5.51774235558696
346 111 6 0 14.155343755167 0.666466862075031 5.51774235558696
347 112 6 0 11.1280661837384 3.41159637359902 0.865398736204952
348 112 7 0 12.0880661837384 3.41159637359902 0.865398736204952
349 112 6 0 12.3280661837384 2.48159637359902 0.865398736204952
350 113 6 0 11.5539821614232 4.41944021074101 14.4813821290154
351 113 7 0 12.5139821614232 4.41944021074101 14.4813821290154
352 113 6 0 12.7539821614232 3.48944021074101 14.4813821290154
353 114 6 0 1.4875113945175 11.1462836693414 9.42081459565088
354 114 7 0 2.4475113945175 11.1462836693414 9.42081459565088
355 114 6 0 2.6875113945175 10.2162836693414 9.42081459565088
356 115 6 0 9.1843546593748 8.52767578832805 5.13445462449454
357 115 7 0 10.1443546593748 8.52767578832805 5.13445462449454
358 115 6 0 10.3843546593748 7.59767578832805 5.13445462449454
359 116 6 0 11.3332047527377 2.08587826037779 10.1338979532011
360 116 7 0 12.2932047527377 2.08587826037779 10.1338979532011
361 116 6 0 12.5332047527377 1.15587826037779 10.1338979532011
362 117 6 0 14.1622194279637 1.49906354531646 1.67422673664987
363 117 7 0 15.1222194279637 1.49906354531646 1.67422673664987
364 117 6 0 15.3622194279637 0.569063545316458 1.67422673664987
365 118 6 0 0.59685248343274 11.588187034186 12.1316464513075
366 118 7 0 1.55685248343274 11.588187034186 12.1316464513075
367 118 6 0 1.79685248343274 10.658187034186 12.1316464513075
368 119 6 0 6.7194027760718 3.56346712721512 12.0956521248445
369 119 7 0 7.6794027760718 3.56346712721512 12.0956521248445
370 119 6 0 7.9194027760718 2.63346712721512 12.0956521248445
371 120 6 0 9.75994803520851 12.0867744581215 5.97259150352329
372 120 7 0 10.7199480352085 12.0867744581215 5.97259150352329
373 120 6 0 10.9599480352085 11.1567744581215 5.97259150352329
374 121 6 0 12.7025373831578 9.31171680375934 6.72056791372597
375 121 7 0 13.6625373831578 9.31171680375934 6.72056791372597
376 121 6 0 13.9025373831578 8.38171680375934 6.72056791372597
377 122 6 0 0.995311885345727 11.3698259745166 2.15173922013491
378 122 7 0 1.95531188534573 11.3698259745166 2.15173922013491
379 122 6 0 2.19531188534573 10.4398259745166 2.15173922013491
380 123 6 0 4.21476359406486 12.1027887372207 14.4797338172793
381 123 7 0 5.17476359406486 12.1027887372207 14.4797338172793
382 123 6 0 5.41476359406486 11.1727887372207 14.4797338172793
383 124 6 0 4.82155897116289 14.7958355808537 6.22074867831543
384 124 7 0 5.78155897116289 14.7958355808537 6.22074867831543
385 124 6 0 6.02155897116289 13.8658355808537 6.22074867831543
386 125 6 0 0.239105937508866 5.20033694029786 5.91049578390084
387 125 7 0 1.19910593750887 5.20033694029786 5.91049578390084
388 125 6 0 1.43910593750887 4.27033694029786 5.91049578390084
389 126 6 0 0.571605063015595 11.0910888928361 2.33025013818406
390 126 7 0 1.5316050630156 11.0910888928361 2.33025013818406
391 126 6 0 1.7716050630156 10.1610888928361 2.33025013818406
392 127 6 0 5.22325930578634 14.388678295482 5.5643417139072
393 127 7 0 6.18325930578634 14.388678295482 5.5643417139072
394 127 6 0 6.42325930578634 13.458678295482 5.5643417139072
395 128 6 0 12.8333633746672 11.2046446503978 10.0547863065731
396 128 7 0 13.7933633746672 11.2046446503978 10.0547863065731
397 128 6 0 14.0333633746672 10.2746446503978 10.0547863065731
398 129 6 0 2.51734403355047 9.20939147280529 9.81107740779407
399 129 7 0 3.47734403355047 9.20939147280529 9.81107740779407
400 129 6 0 3.71734403355047 8.27939147280529 9.81107740779407
401 130 6 0 6.64907316371799 9.98177635524422 11.8297040951438
402 130 7 0 7.60907316371799 9.98177635524422 11.8297040951438
403 130 6 0 7.84907316371799 9.05177635524422 11.8297040951438
404 131 6 0 6.83357255344279 14.0429187442083 8.32362569170073
405 131 7 0 7.79357255344279 14.0429187442083 8.32362569170073
406 131 6 0 8.03357255344279 13.1129187442083 8.32362569170073
407 132 6 0 1.3279849842377 9.05954730970785 4.44174808217213
408 132 7 0 2.2879849842377 9.05954730970785 4.44174808217213
409 132 6 0 2.5279849842377 8.12954730970785 4.44174808217213
410 133 6 0 9.24516964863986 1.32394642144442 4.56581954145804
411 133 7 0 10.2051696486399 1.32394642144442 4.56581954145804
412 133 6 0 10.4451696486399 0.393946421444416 4.56581954145804
413 134 6 0 3.04450951443985 4.69557178131305 3.18381183198653
414 134 7 0 4.00450951443985 4.69557178131305 3.18381183198653
415 134 6 0 4.24450951443985 3.76557178131305 3.18381183198653
416 135 6 0 9.7291560801398 13.3552211922966 7.75479663396254
417 135 7 0 10.6891560801398 13.3552211922966 7.75479663396254
418 135 6 0 10.9291560801398 12.4252211922966 7.75479663396254
419 136 6 0 11.5242847432103 6.97977949324064 14.784243979957
420 136 7 0 12.4842847432103 6.97977949324064 14.784243979957
421 136 6 0 12.7242847432103 6.04977949324064 14.784243979957
422 137 6 0 8.71427856196649 6.38496270094998 6.45980420289561
423 137 7 0 9.67427856196649 6.38496270094998 6.45980420289561
424 137 6 0 9.91427856196649 5.45496270094998 6.45980420289561
425 138 6 0 2.9932778938394 9.93599297519773 6.59730427782051
426 138 7 0 3.9532778938394 9.93599297519773 6.59730427782051
427 138 6 0 4.1932778938394 9.00599297519773 6.59730427782051
428 139 6 0 0.371554808663204 9.66906076338142 3.81413853960112
429 139 7 0 1.3315548086632 9.66906076338142 3.81413853960112
430 139 6 0 1.5715548086632 8.73906076338142 3.81413853960112
431 140 6 0 7.3421791665908 14.8926571201906 12.9864034918137
432 140 7 0 8.3021791665908 14.8926571201906 12.9864034918137
433 140 6 0 8.5421791665908 13.9626571201906 12.9864034918137
434 141 6 0 10.6118736827932 6.07208066544495 10.470167894382
435 141 7 0 11.5718736827932 6.07208066544495 10.470167894382
436 141 6 0 11.8118736827932 5.14208066544496 10.470167894382
437 142 6 0 1.30908019535244 4.1890228869766 12.4280882603489
438 142 7 0 2.26908019535244 4.1890228869766 12.4280882603489
439 142 6 0 2.50908019535244 3.2590228869766 12.4280882603489
440 143 6 0 9.41584122410975 1.90182134433649 1.41459022066556
441 143 7 0 10.3758412241098 1.90182134433649 1.41459022066556
442 143 6 0 10.6158412241098 0.971821344336495 1.41459022066556
443 144 6 0 12.8182179985754 9.70411452505738 11.820501589682
444 144 7 0 13.7782179985754 9.70411452505738 11.820501589682
445 144 6 0 14.0182179985754 8.77411452505738 11.820501589682
446 145 6 0 11.6935416699573 5.14918993151747 9.62326324079186
447 145 7 0 12.6535416699573 5.14918993151747 9.62326324079186
448 145 6 0 12.8935416699573 4.21918993151747 9.62326324079186
449 146 6 0 1.80708475571126 2.54179454333149 7.86834746715613
450 146 7 0 2.76708475571126 2.54179454333149 7.86834746715613
451 146 6 0 3.00708475571126 1.61179454333149 7.86834746715613
452 147 6 0 0.296513620270416 9.39608819940127 0.359439222374931
453 147 7 0 1.25651362027042 9.39608819940127 0.359439222374931
454 147 6 0 1.49651362027042 8.46608819940128 0.359439222374931
455 148 6 0 8.95738151201047 1.6588365651574 6.69644933310337
456 148 7 0 9.91738151201047 1.6588365651574 6.69644933310337
457 148 6 0 10.1573815120105 0.728836565157398 6.69644933310337
458 149 6 0 13.3029624230415 2.45241262059659 7.83011559513398
459 149 7 0 14.2629624230415 2.45241262059659 7.83011559513398
460 149 6 0 14.5029624230415 1.52241262059659 7.83011559513398
461 150 6 0 0.220767817664892 1.3360686581023 1.66368327685632
462 150 7 0 1.18076781766489 1.3360686581023 1.66368327685632
463 150 6 0 1.42076781766489 0.406068658102304 1.66368327685632
464 151 6 0 8.46017157353461 0.973104084087536 0.966489576967433
465 151 7 0 9.42017157353461 0.973104084087536 0.966489576967433
466 151 6 0 9.66017157353461 0.0431040840875357 0.966489576967433
467 152 6 0 7.36617242379114 5.76076923444867 7.25246826536022
468 152 7 0 8.32617242379114 5.76076923444867 7.25246826536022
469 152 6 0 8.56617242379114 4.83076923444867 7.25246826536022
470 153 6 0 4.75204050701112 13.3426421000063 10.2772973023821
471 153 7 0 5.71204050701112 13.3426421000063 10.2772973023821
472 153 6 0 5.95204050701112 12.4126421000063 10.2772973023821
473 154 6 0 11.0825628430769 8.31173925352283 8.69584013242275
474 154 7 0 12.0425628430769 8.31173925352283 8.69584013242275