LAMMPS (29 Sep 2021 - Update 1)
Reading data file ...
  triclinic box = (0.0000000 0.0000000 0.0000000) to (15.000000 15.000000 15.000000) with tilt (0.0000000 0.0000000 0.0000000)
  2 by 4 by 4 MPI processor grid
  reading atoms ...
  1516 atoms
  scanning bonds ...
  2 = max bonds/atom
  scanning angles ...
  6 = max angles/atom
  scanning dihedrals ...
  10 = max dihedrals/atom
  scanning impropers ...
  2 = max impropers/atom
  reading bonds ...
  1015 bonds
  reading angles ...
  524 angles
  reading dihedrals ...
  26 dihedrals
  reading impropers ...
  4 impropers
Finding 1-2 1-3 1-4 neighbors ...
  special bond factors lj:    0        0        1       
  special bond factors coul:  0        0        1       
     4 = max # of 1-2 neighbors
     5 = max # of 1-3 neighbors
     8 = max # of special neighbors
  special bonds CPU = 0.002 seconds
  read_data CPU = 0.017 seconds
WARNING: Using 'neigh_modify every 1 delay 0 check yes' setting during minimization (../min.cpp:188)
Neighbor list info ...
  update every 1 steps, delay 0 steps, check yes
  max neighbors/atom: 10000, page size: 100000
  master list distance cutoff = 13
  ghost atom cutoff = 13
  binsize = 6.5, bins = 3 3 3
  3 neighbor lists, perpetual/occasional/extra = 3 0 0
  (1) pair hbond/dreiding/lj, perpetual, skip from (3)
      attributes: full, newton on
      pair build: skip
      stencil: none
      bin: none
  (2) pair lj/cut, perpetual, half/full from (3)
      attributes: half, newton on
      pair build: halffull/newton
      stencil: none
      bin: none
  (3) neighbor class addition, perpetual
      attributes: full, newton on
      pair build: full/bin
      stencil: full/bin/3d
      bin: standard
Setting up cg style minimization ...
  Unit style    : real
  Current step  : 0
WARNING: Energy due to 1 extra global DOFs will be included in minimizer energies
Per MPI rank memory allocation (min/avg/max) = 14.72 | 15.08 | 16.53 Mbytes
Step Temp E_pair E_mol TotEng Press Volume 
       0            0 4.1690762e+18    275.53522 4.1690762e+18 3.3880527e+20         3375 
    5730            0   -1111.6966    41.322879   -1070.3737    133.71551     38513.74 
Loop time of 5.84863 on 32 procs for 5730 steps with 1516 atoms

100.0% CPU use with 32 MPI tasks x no OpenMP threads

Minimization stats:
  Stopping criterion = energy tolerance
  Energy initial, next-to-last, final = 
    4.16907621585507e+18  -1069.77673197353    -1069.861281688
  Force two-norm initial, final = 1.1017790e+21 122.52399
  Force max component initial, final = 6.1295978e+20 99.331550
  Final line search alpha, max atom move = 2.0655141e-05 0.0020517071
  Iterations, force evaluations = 5730 5736

MPI task timing breakdown:
Section |  min time  |  avg time  |  max time  |%varavg| %total
---------------------------------------------------------------
Pair    | 1.6278     | 2.6889     | 5.041      |  42.3 | 45.98
Bond    | 0.0074648  | 0.012132   | 0.036955   |   4.5 |  0.21
Neigh   | 0.1241     | 0.1244     | 0.12487    |   0.1 |  2.13
Comm    | 0.28207    | 2.6537     | 3.7166     |  42.7 | 45.37
Output  | 0          | 0          | 0          |   0.0 |  0.00
Modify  | 0          | 0          | 0          |   0.0 |  0.00
Other   |            | 0.3694     |            |       |  6.32

Nlocal:        47.3750 ave          82 max          27 min
Histogram: 4 3 6 5 3 6 3 1 0 1
Nghost:        1908.00 ave        1952 max        1874 min
Histogram: 3 4 2 7 4 5 1 3 1 2
Neighs:        4767.47 ave        9668 max        2223 min
Histogram: 2 6 8 4 8 2 1 0 0 1

Total # of neighbors = 152559
Ave neighs/atom = 100.63259
Ave special neighs/atom = 2.0303430
Neighbor list builds = 95
Dangerous builds = 0
1500 atoms in group WAT
16 atoms in group MOL
Neighbor list info ...
  update every 2 steps, delay 10 steps, check yes
  max neighbors/atom: 10000, page size: 100000
  master list distance cutoff = 13
  ghost atom cutoff = 13
  binsize = 6.5, bins = 6 6 6
  4 neighbor lists, perpetual/occasional/extra = 3 1 0
  (1) pair hbond/dreiding/lj, perpetual, skip from (4)
      attributes: full, newton on
      pair build: skip
      stencil: none
      bin: none
  (2) pair lj/cut, perpetual, half/full from (4)
      attributes: half, newton on
      pair build: halffull/newton
      stencil: none
      bin: none
  (3) compute group/group, occasional, copy from (2)
      attributes: half, newton on
      pair build: copy
      stencil: none
      bin: none
  (4) neighbor class addition, perpetual
      attributes: full, newton on
      pair build: full/bin
      stencil: full/bin/3d
      bin: standard
Setting up Verlet run ...
  Unit style    : real
  Current step  : 5730
  Time step     : 1
Per MPI rank memory allocation (min/avg/max) = 13.57 | 13.64 | 14.23 Mbytes
Step Temp E_pair E_mol TotEng Press Volume 
    5730          300   -1111.6966    41.322879    284.40442    1741.7129     38513.74 
    5800    298.30782   -1077.8117    186.64277    455.96752    712.85125     38513.74 
    5900    289.70374   -1090.7572    206.72771    424.25153    732.63337     38513.74 
    6000    301.53115   -1068.7081    205.71426    498.69891    1188.1408     38513.74 
    6100    301.71113   -1092.7477    175.19036     444.9482     870.6352     38513.74 
    6200    297.87258   -1041.2796    206.15036     510.0416    594.92727     38513.74 
    6300    292.01043   -1093.4978     207.5367     432.7368    987.92967     38513.74 
    6400    288.57991   -1101.3412    209.55631    411.42095     1084.167     38513.74 
    6500     306.0123   -1055.8551    199.69386    525.76805    482.69085     38513.74 
    6600    302.19095   -1068.4768    200.74585    496.94139    440.03836     38513.74 
    6700    299.69582   -1116.3814    194.98802    432.01118    291.40942     38513.74 
    6800    302.92234   -1091.7637    216.76467    492.97619   -57.124672     38513.74 
    6900    303.77933   -1086.7701    208.89205    493.96727   -183.62098     38513.74 
    7000     307.8702   -1092.0095    211.68802    509.99792    383.10122     38513.74 
    7100     302.0921   -1116.8319    218.25963    465.65368    392.58956     38513.74 
    7200     291.9681   -1107.3189    197.55268    408.74051    289.93663     38513.74 
    7300    301.26374   -1060.6018    211.45924    511.34255     17.49453     38513.74 
    7400    290.95095   -1107.3926    221.90255    428.42328    176.32449     38513.74 
    7500    302.72145   -1083.5812    205.52903    489.01582    893.11434     38513.74 
    7600    293.92265   -1085.0469    219.91986     462.2062    219.03796     38513.74 
    7700    294.47884   -1044.5462    232.64767    517.94646    249.38048     38513.74 
    7800    303.63199   -1065.7728    215.89639    521.30359    260.91741     38513.74 
    7900    301.72291   -1098.4941    235.04189    499.10653   -1.0056317     38513.74 
    8000    303.07476   -1107.7014    227.61375    488.57589    271.70419     38513.74 
    8100    308.83976   -1068.1197    228.78006    555.35823    127.05208     38513.74 
    8200    293.84603   -1087.6997    213.38684     452.6744    123.01687     38513.74 
    8300    290.21887   -1039.4397     232.3281     503.4957    467.82988     38513.74 
    8400    309.28545   -1150.4098    229.42726    475.72807    423.32996     38513.74 
    8500    311.86871   -1066.3786    224.88495    566.88279    418.11834     38513.74 
    8600    295.94648   -1076.9695    233.73066    493.23387     383.4787     38513.74 
    8700     289.1246   -1081.8352    228.90253    452.73298    253.27625     38513.74 
    8800    301.30501   -1106.6563    238.92886    492.94409    504.74253     38513.74 
    8900     308.2515   -1098.6811    223.08723    516.44753    64.664922     38513.74 
    9000    291.17613   -1083.8445    235.50426    466.58999    769.36505     38513.74 
    9100    298.50554   -1071.1559    237.42686     514.3003    174.76985     38513.74 
    9200    304.32127    -1055.757    232.68101    551.21674    830.55436     38513.74 
    9300    293.07525   -1128.3854    238.29209    433.41322    111.26669     38513.74 
    9400    309.37722   -1088.8247    229.06946    537.36978    271.62946     38513.74 
    9500    291.39067   -1131.1855    232.77338    417.48694    358.64086     38513.74 
    9600     293.7097   -1109.1514    231.02664    448.24681    308.13634     38513.74 
    9700    293.05978   -1152.6142    245.65332    416.47576   -23.787793     38513.74 
    9800    293.90175   -1120.1429    232.64566    439.74168    474.25652     38513.74 
    9900    298.05504   -1071.2167    235.15706    509.93528    460.55315     38513.74 
   10000     291.6556   -1069.7984    263.56266    510.85975    571.97348     38513.74 
   10100    291.32815    -1059.034    227.31136    483.89408     495.2382     38513.74 
   10200     295.5919     -1088.52    245.29652      491.648    466.82574     38513.74 
   10300    297.72191   -1103.5447    257.03895    497.98477   -48.233536     38513.74 
   10400    307.94185   -1078.7092    247.04744    558.98124    583.29357     38513.74 
   10500    307.41784   -1083.2369    237.43095    542.47065    460.39219     38513.74 
   10600    298.30036   -1102.3509    266.36234    511.11412    366.46713     38513.74 
   10700    306.78236   -1086.5728    239.00796    537.84197    496.78258     38513.74 
   10800    304.81239   -1106.5359    248.61314    518.58779    326.50996     38513.74 
   10900    298.95788   -1099.7165    246.19559    496.55115    629.46782     38513.74 
   11000    303.37533   -1101.8875    263.16564    531.29902    861.52585     38513.74 
   11100    308.14835   -1104.0156    249.05313    536.61303    553.60122     38513.74 
   11200    305.38705   -1098.4028    253.01138    533.71429    453.78258     38513.74 
   11300    303.73866   -1105.8582    249.37858    515.18203    461.60168     38513.74 
   11400    306.34626   -1106.4932    269.42601    546.37021    510.41927     38513.74 
   11500    305.67709   -1115.4279    252.74347    517.73109    443.37502     38513.74 
   11600    295.92502   -1091.3507    260.69545     505.7206    166.33915     38513.74 
   11700    299.22769   -1088.6431    254.45482    517.10222   -128.16943     38513.74 
   11800    292.70069   -1069.7641    251.49964    503.55058    120.08236     38513.74 
   11900    291.93341    -1093.079    264.49623    489.76724    53.215954     38513.74 
   12000    301.50735   -1116.0429    260.36415     505.9065    121.85981     38513.74 
   12100     297.7296   -1102.4083    275.91649    518.03339    248.11946     38513.74 
   12200    311.08111    -1081.229    271.30386    594.89454    266.40736     38513.74 
   12300    303.22799   -1104.5993    271.00507    535.76133    747.85449     38513.74 
   12400    297.54138    -1091.881    282.70997    534.50419     364.3452     38513.74 
   12500    300.69459   -1115.6958    268.34508    510.56415    453.51336     38513.74 
   12600     306.7023   -1118.1461    279.47311    546.37227    410.09639     38513.74 
   12700    296.49455   -1115.9276       278.04    501.06017    154.53071     38513.74 
   12800    303.58539   -1194.7147    257.69851    433.95334    189.78361     38513.74 
   12900     314.4061   -1157.8709    263.76563    525.72976   -191.20562     38513.74 
   13000    303.54324   -1141.4244    264.43237    493.78714     339.0922     38513.74 
   13100    293.73088   -1188.5282    279.15681    417.09587    122.89669     38513.74 
   13200     293.2066   -1185.0833    288.08092    427.09726    360.25393     38513.74 
   13300    301.39054   -1161.6861    258.22341    457.59501    174.23821     38513.74 
   13400    295.36402   -1174.8678    280.86129    439.83592    304.67323     38513.74 
   13500     305.0198   -1168.4462    275.36699    484.36799    360.28427     38513.74 
   13600    304.43505   -1130.1075    267.44304    512.14211    668.29627     38513.74 
   13700    306.66598   -1135.6422    285.61562    534.85463    462.13654     38513.74 
   13800    299.47827   -1118.5361    287.98289    521.86886    277.55861     38513.74 
   13900    302.04089   -1118.9066    280.80532    525.89336    556.13425     38513.74 
   14000    303.43306   -1124.7781    280.29909    525.80261     462.0916     38513.74 
   14100    308.51727    -1092.871    280.46819    580.83869    680.63061     38513.74 
   14200    297.36813   -1099.2856    282.77326    526.38053    190.29738     38513.74 
   14300    303.53393   -1128.1061    280.83045    523.46152    103.77956     38513.74 
   14400    297.15446   -1128.6397    282.08009    495.36831    261.31382     38513.74 
   14500    292.38246   -1154.2061    285.18386    451.35569    591.72835     38513.74 
   14600    299.15261   -1163.9764    284.49178    471.46679    244.85791     38513.74 
   14700    303.91681   -1129.8273    279.46334    522.10225    530.85077     38513.74 
   14800     302.5764   -1124.0896    293.47245    535.79584    632.41231     38513.74 
   14900    300.65918   -1107.9094    268.50422    518.34981     353.6536     38513.74 
   15000    296.46451   -1106.3583    300.38337    532.83721     414.0508     38513.74 
   15100    302.51341    -1121.629    294.40338    538.90286    541.11575     38513.74 
   15200    299.69264   -1114.6467    288.60318    527.34666    240.58936     38513.74 
   15300    294.83694   -1139.7664    294.05274    485.74852     265.5498     38513.74 
   15400    288.95243   -1148.6511    282.11897    438.35604    244.35224     38513.74 
   15500    289.34958   -1122.7366    305.53622    489.48132    207.49831     38513.74 
   15600    296.96928   -1126.8044    286.52021    500.80746   -81.730635     38513.74 
   15700     301.2201    -1125.349    308.56726    543.50631      173.671     38513.74 
   15800    303.52104   -1146.2363    301.94255    526.38517    31.031587     38513.74 
   15900    292.67415   -1144.0365    284.39024    462.04893   -236.97185     38513.74 
   16000    293.64136   -1135.4969    290.24591    480.81198    493.30295     38513.74 
   16100    307.37077   -1131.3071     314.1071    570.86406    538.42796     38513.74 
   16200    297.07078   -1159.7183     299.0337    480.86546    636.73665     38513.74 
   16300    300.13682   -1103.0867    300.56765    552.87704    281.48973     38513.74 
   16400    293.17935   -1153.7163     316.8199    487.08021   -25.249883     38513.74 
   16500    299.88463   -1148.3289    303.62932    509.55757    303.95493     38513.74 
   16600    308.25376   -1150.2986     315.6819    557.43481    524.94463     38513.74 
   16700    295.54938    -1131.255    301.92034    505.34479    346.66291     38513.74 
   16800    297.85922   -1138.1495    295.18646     502.1475    238.75517     38513.74 
   16900    291.87071   -1115.7602    309.30572    511.61239    116.27709     38513.74 
   17000    301.74284   -1131.1628    318.86422    550.35012    726.05275     38513.74 
   17100     300.3401   -1134.8409    289.90017    511.37331     885.1383     38513.74 
   17200    298.96194   -1165.7743    308.63036    492.94638    747.53683     38513.74 
   17300    298.10021   -1133.8917    316.32241    528.62953    278.04996     38513.74 
   17400    294.05591   -1119.0622    315.02006    523.89289    191.84426     38513.74 
   17500    300.29073   -1130.8872    303.41283    528.61674    395.50339     38513.74 
   17600    301.51123   -1161.0993     330.4008    530.90426    356.11919     38513.74 
   17700    296.30825    -1166.133     309.3682    481.34165    -178.2085     38513.74 
   17800    300.58349   -1181.9903    312.91652    488.33941    505.59404     38513.74 
   17900    303.78065   -1141.4819    310.14065     540.5101    -75.29928     38513.74 
   18000    308.16945   -1130.5985    308.82504    569.89738    27.872185     38513.74 
   18100    300.72326   -1120.8531    313.52928    550.72051   -17.147787     38513.74 
   18200    290.32631   -1096.9751    310.73114    524.84848    -210.2384     38513.74 
   18300    294.58821    -1150.059    325.38237     505.6623   -233.73016     38513.74 
   18400    315.18165   -1167.4726    301.22091    557.08566    799.74331     38513.74 
   18500     300.5629   -1174.6247    299.80912    482.50464    93.187129     38513.74 
   18600    297.43749   -1156.1701    325.12765    512.16359    109.13688     38513.74 
   18700    297.67933   -1208.2984    312.25922    448.25903   -261.00493     38513.74 
   18800     294.8977   -1193.6403    311.66115    449.75737   -225.47753     38513.74 
   18900    296.53969   -1176.5583    306.15058    468.74394   -393.70235     38513.74 
   19000    308.61556   -1205.8221    324.07153    511.93485   -371.03165     38513.74 
   19100    303.85892   -1219.1774    318.85279     471.8802   -497.74289     38513.74 
   19200    296.36834   -1202.2679    308.85955    444.96952   -206.80208     38513.74 
   19300    309.36546   -1223.6308    344.36635    517.80748    463.86936     38513.74 
   19400    296.18377   -1199.3762    318.03996    456.20816   -174.47781     38513.74 
   19500    295.96508   -1154.2103    329.85117    512.19758     408.7502     38513.74 
   19600    292.47794   -1236.8483    322.97088    406.93162   -93.590436     38513.74 
   19700    296.02346   -1253.3939    297.74789     381.1744    209.12579     38513.74 
   19800    298.70305   -1214.7303    332.93516    467.12604    426.11584     38513.74 
   19900    301.00026   -1203.4157     315.6051    471.48468    590.38164     38513.74 
   20000    302.27978   -1207.3774    332.09831     489.7944    371.86661     38513.74 
   20100    299.37853    -1208.064    329.26418    473.17181    971.23699     38513.74 
   20200    298.87332   -1222.7986    326.40051    453.29205    231.26138     38513.74 
   20300    293.03945   -1191.9169    344.93874    476.36663    606.95423     38513.74 
   20400      296.149   -1144.7725    334.89576    527.51055    7.6276093     38513.74 
   20500    297.56647   -1168.3379    335.07497    510.52561   -112.69879     38513.74 
   20600    302.93085   -1184.2177    329.99508    513.79111    138.22817     38513.74 
   20700    304.23229   -1167.4227    329.14522    535.61345   -235.93095     38513.74 
   20800    297.30175   -1215.3319    326.51518    453.77637   -118.65641     38513.74 
   20900    297.06144   -1187.3185    316.12394    470.31328   -49.096288     38513.74 
   21000    295.28824   -1183.3457    336.49022     486.6447    301.36974     38513.74 
   21100    297.86085   -1173.9211    347.85927    519.05615    319.15114     38513.74 
   21200    299.03804   -1180.6439     328.0273    497.81747    351.18406     38513.74 
   21300    294.03331   -1130.6301    330.47322    527.67618    250.71375     38513.74 
   21400     294.6876   -1170.5259    335.45265    495.71451    38.899199     38513.74 
   21500    296.15221   -1224.6538    324.90179    437.64978   -240.29421     38513.74 
   21600    298.56794   -1174.2883    340.41503    514.43777   -27.666993     38513.74 
   21700    300.04196   -1190.6147      333.338    497.69093    100.82721     38513.74 
   21800    305.42934   -1164.7222    329.16346    543.73794   -56.154651     38513.74 
   21900    299.12142   -1169.5539    335.19861    516.45522    14.010714     38513.74 
   22000    306.59766    -1218.089    329.72415    496.20784   -38.604888     38513.74 
   22100    301.31612   -1194.9097    330.53501    496.34697   -518.10598     38513.74 
   22200     297.8706   -1199.5815    347.80308    493.38349   -305.67818     38513.74 
   22300    289.96823   -1200.3599    336.95322    446.06873    363.83296     38513.74 
   22400     298.4239   -1189.0457    320.36349     478.9784    240.40616     38513.74 
   22500    297.66039   -1204.1143    334.31436    474.41279    258.00626     38513.74 
   22600    291.99111   -1181.6393    346.07576    483.04709    573.58002     38513.74 
   22700      292.866    -1226.598     356.6965    452.65999    127.33665     38513.74 
   22800    305.53491    -1236.382    340.37564    483.76708    433.27149     38513.74 
   22900    299.40626   -1259.5589    330.07332     422.6113    24.910475     38513.74 
   23000    296.64256   -1285.2907     336.2598    390.58535    43.406635     38513.74 
   23100    307.84046    -1227.637    336.90909    499.45716   -336.26784     38513.74 
   23200    301.05549   -1238.0454    327.93416    449.43345    166.05382     38513.74 
   23300    308.94258   -1226.6462    341.52453    510.04052   -157.83925     38513.74 
   23400    296.75648    -1193.491    371.82868    518.46833    449.03854     38513.74 
   23500    298.02287   -1190.9371    346.70776    501.62025    88.599939     38513.74 
   23600     306.5341   -1182.6987    368.22936    569.81632    147.21392     38513.74 
   23700    297.29238   -1243.7248    346.39357    445.21949    166.69412     38513.74 
   23800    308.88853   -1212.7184    344.37376    526.57354    223.92255     38513.74 
   23900     284.8687   -1246.3791     351.7805    391.84777     169.1098     38513.74 
   24000    289.78136   -1208.0994    359.69848    460.23064    344.85323     38513.74 
   24100    296.75411    -1229.608    341.05866    451.57064    547.77731     38513.74 
   24200    299.47833   -1227.8858    360.96683    485.50336    721.79428     38513.74 
   24300    305.01352   -1185.5328    378.92041    570.80651    776.01304     38513.74 
   24400    300.01893   -1233.5902    345.12396    466.39736    1287.8977     38513.74 
   24500     299.6034   -1248.6963    359.07497    463.36585    1057.8718     38513.74 
   24600    296.83567   -1243.3496    367.00919    464.14783    609.75555     38513.74 
   24700    300.28735   -1186.5537    350.42846    519.95059    594.97501     38513.74 
   24800    302.68823   -1228.1952    353.60992    492.33273     476.0607     38513.74 
   24900    296.62712   -1201.1586    365.59538     503.9833    358.14187     38513.74 
   25000    302.84447   -1183.5454    367.17307    551.25124    856.34002     38513.74 
   25100    295.66771   -1192.4456    373.04645    515.81475    648.91303     38513.74 
   25200    298.03547   -1213.7453    368.63333    500.79454    312.65678     38513.74 
   25300    301.04358   -1211.5906    344.84318    492.74343    640.06521     38513.74 
   25400    297.84255   -1192.5309    369.16197    521.66637    772.25389     38513.74 
   25500    287.73131   -1191.9579    357.49184    464.90758    120.12268     38513.74 
   25600    294.90015   -1234.6186    352.63091     449.7599    63.106243     38513.74 
   25700     296.1171   -1247.5942    363.43916    453.08824   -260.49496     38513.74 
   25800    299.23643   -1250.6135    356.48133    457.19771   -297.57623     38513.74 
   25900    298.51836   -1203.0181    352.91348    497.98253   -334.17472     38513.74 
   26000    288.89407   -1213.1146    356.17814    447.68812   -370.75403     38513.74 
   26100    305.89405   -1176.5898    380.33929    585.14472   -564.48462     38513.74 
   26200    294.02973   -1169.1307    371.03766    529.72387   -156.67285     38513.74 
   26300    292.41081   -1203.9938    382.91588    499.42802   -232.24177     38513.74 
   26400    292.41928   -1223.3747    339.57791    436.74737   -318.56938     38513.74 
   26500    299.64291   -1257.4764     363.5586    459.24773   -92.488898     38513.74 
   26600    297.02964   -1220.5571    373.26934    494.07643   -2.5600257     38513.74 
   26700    307.39124   -1278.8811    367.13462    476.40999   -13.280111     38513.74 
   26800    293.88508   -1264.5035    367.83616    430.49626    72.716132     38513.74 
   26900    298.26758    -1236.081    389.42194    500.29557    -256.7157     38513.74 
   27000    290.34925   -1270.2469    348.35866    389.30789    84.682643     38513.74 
   27100     297.8439   -1243.6338    366.27236    467.67988     140.9082     38513.74 
   27200    301.84058   -1200.7304    365.41593     527.7757    475.74073     38513.74 
   27300    307.59357   -1239.3522    367.43465    517.15258    770.43521     38513.74 
   27400    299.12617   -1263.2113    382.96212     470.5828    538.62111     38513.74 
   27500    297.13625   -1252.2216    393.77421    483.39828    563.55018     38513.74 
   27600    306.70338   -1281.5154     379.3808    482.91559    221.42988     38513.74 
   27700    302.46629   -1284.7648    375.47842    456.62942    241.51934     38513.74 
   27800     303.2206   -1258.3595    389.02559    499.98826   -15.898306     38513.74 
   27900    294.18386   -1259.5107     372.4904    441.49256   -574.94189     38513.74 
   28000    300.44467   -1237.0463    367.55469     487.2946    -238.0476     38513.74 
   28100    304.15881   -1237.3272    381.05773    517.28955   -431.79197     38513.74 
   28200     293.9074   -1217.6592    370.57271    480.17795   -803.52248     38513.74 
   28300    305.19349   -1296.3469    367.07257    448.95724   -591.45346     38513.74 
   28400    292.50374   -1234.9852    406.69546    492.63582   -454.71199     38513.74 
   28500    297.96016   -1217.6676    390.52818    518.42697   -55.432505     38513.74 
   28600    297.58903   -1251.5687    388.48019     480.8019   -16.231015     38513.74 
   28700    301.27155   -1258.3989    367.46648    469.58795    20.444839     38513.74 
   28800    292.31024   -1255.5753    377.85797    442.33441    188.76555     38513.74 
   28900    298.26128    -1275.937    371.91236    442.90154   -49.347772     38513.74 
   29000    293.66333   -1262.9384     384.1903    447.41416     588.2401     38513.74 
   29100    305.42174   -1252.2726    385.35961     512.3493    917.79592     38513.74 
   29200    295.71666   -1258.9227    377.00093    453.51316     498.8966     38513.74 
   29300    308.55669   -1266.9212    373.80081    500.29923    255.71639     38513.74 
   29400    292.70255   -1240.2103    384.87657    466.48967    16.469307     38513.74 
   29500    298.58805   -1263.1754     380.3936    465.62007    110.15379     38513.74 
   29600    304.05237   -1265.7923    371.99003    479.27612   -143.14864     38513.74 
   29700    303.43435   -1249.2646    390.73771    511.76058   -99.220685     38513.74 
   29800    304.82279   -1241.0827    384.83247    520.30736    69.651615     38513.74 
   29900    309.45705   -1250.9279    369.15233    515.70993   -193.73402     38513.74 
   30000    305.22976   -1236.4959    383.66223    525.56174    196.32452     38513.74 
   30100    286.52808   -1251.9587    383.50166    425.48294   -311.16529     38513.74 
   30200    294.42179   -1292.1086     367.4209    404.89973   -238.65274     38513.74 
   30300    303.92261   -1216.1721    385.00498    541.32523   -247.57688     38513.74 
   30400     304.3662   -1236.8846    384.69964    522.31062    336.12694     38513.74 
   30500    284.38333   -1217.8498    397.99548     464.4001   -76.725367     38513.74 
   30600    298.12175   -1246.9677    389.00628    488.33474    171.93958     38513.74 
   30700    291.20583    -1263.575    385.92359    437.41299    185.43518     38513.74 
   30800      297.032   -1289.3037    377.21201    429.28324      22.0537     38513.74 
   30900    306.37874   -1299.5547    394.08858    478.11802    212.97447     38513.74 
   31000    300.05618   -1264.0932    391.09122    482.02991    837.56014     38513.74 
   31100    298.76631    -1234.191    375.14282    490.15873     224.8358     38513.74 
   31200    295.06879   -1258.3577    369.20755    443.35906   -138.66341     38513.74 
   31300    296.69899   -1259.6669    365.51701    445.72111    198.43696     38513.74 
   31400    295.96117   -1266.9011    362.45137     432.0894   -125.28058     38513.74 
   31500    297.82463   -1261.2355    358.49732     442.2162   -641.65383     38513.74 
   31600    292.98378   -1257.6373    369.86758    435.32378   -216.44089     38513.74 
   31700     290.9405    -1259.537    373.39627     427.7254    -318.3184     38513.74 
   31800    295.66764   -1270.3805    387.56533     452.3984   -129.33717     38513.74 
   31900    300.17918   -1225.7002    390.74539    520.63257    192.98495     38513.74 
   32000    294.62463   -1263.2965    378.16117    445.36805    99.383088     38513.74 
   32100    293.84531    -1248.016    392.56617    471.53423    483.44157     38513.74 
   32200    302.67993   -1235.4784    371.47985    502.88199    378.66714     38513.74 
   32300    300.58355     -1275.28    373.21012    455.34357    311.51306     38513.74 
   32400    302.24339   -1309.1248    388.71991    444.50426   -108.54391     38513.74 
   32500    308.19506   -1273.8154    389.96661    507.93766    411.87955     38513.74 
   32600    293.37418   -1266.6258    391.52329    449.75397    342.10981     38513.74 
   32700    294.92797   -1277.5032    370.72478    425.09484   -72.830959     38513.74 
   32800    297.60799   -1229.4342    396.33539    510.87724   -140.37909     38513.74 
   32900     299.0982   -1219.6554    390.96221    522.01256   -17.783898     38513.74 
   33000    297.51143   -1238.3736    381.82746    486.99385     391.6609     38513.74 
   33100    290.71364   -1261.6889    404.37247    455.52525    23.044384     38513.74 
   33200    305.63145   -1259.4932    404.51942    525.23555    437.14317     38513.74 
   33300    294.64372   -1252.2882    400.85315    479.15451   -47.745445     38513.74 
   33400     308.8459   -1259.3071    385.44114     520.8597    316.77617     38513.74 
   33500    303.25164   -1289.1384    400.45995     480.7839    193.33846     38513.74 
   33600    296.94592   -1252.3954    396.62923    485.21995   -40.119518     38513.74 
   33700    292.09192   -1269.6551    390.24134    439.65204   -253.50078     38513.74 
   33800    296.28245   -1243.9749    391.18126    485.19636   -135.67192     38513.74 
   33900    294.35431   -1258.6166    383.49404    454.16009   -224.45259     38513.74 
   34000    294.08854    -1208.642    389.99318    509.43365    218.27892     38513.74 
   34100    303.36215   -1287.2784    402.21929    484.90233    79.197236     38513.74 
   34200    291.61957   -1259.8107    401.48365    458.60571    98.960357     38513.74 
   34300    292.96502    -1269.149    411.06549    464.92517    365.67562     38513.74 
   34400    296.07817   -1268.6524    403.00456    471.41962   -312.87936     38513.74 
   34500    295.53078   -1236.4307    378.29711    476.46192    -343.7701     38513.74 
   34600    297.38472   -1266.7135      379.897    456.15124   -125.10003     38513.74 
   34700     297.6589    -1320.858    384.43533    407.78329    76.145174     38513.74 
   34800    301.68502   -1270.0987    389.76497    482.05384    288.54778     38513.74 
   34900    302.32409   -1281.2072    406.92188    490.98822   -524.27313     38513.74 
   35000    298.84751   -1259.3279    390.98703    481.23272    113.13998     38513.74 
   35100    296.84686   -1276.3847    395.43535    459.58946    -374.6228     38513.74 
   35200    294.52209   -1274.8003    375.05647    430.29648   -493.55414     38513.74 
   35300    310.15446   -1253.0823    404.59188    552.14462   -332.55114     38513.74 
   35400    308.20253   -1299.6413    393.02453    485.20342   -142.98772     38513.74 
   35500      311.706   -1261.4887    395.12462    541.27751    73.928827     38513.74 
   35600    297.82523   -1289.7219    421.09293    476.32806   -11.623743     38513.74 
   35700    307.17474   -1276.3834    408.41869    519.21408    79.866047     38513.74 
   35800    296.57607   -1262.4079     425.9448    502.85284   -397.39175     38513.74 
   35900    304.07062   -1296.1011    400.88205    477.94176   -192.89866     38513.74 
   36000    291.05825   -1310.6191     390.5927    394.37147   -150.83175     38513.74 
   36100    290.14903   -1329.6104    404.64967    385.33121    219.63196     38513.74 
   36200    291.31208   -1323.0721    399.10836     391.5804    206.54197     38513.74 
   36300    305.04498   -1298.6161    397.90372    476.84858    -162.2801     38513.74 
   36400    290.99692   -1292.2692    388.66803    410.51979   -165.87676     38513.74 
   36500    298.48254   -1284.9663    389.70094    452.66008   -448.32639     38513.74 
   36600    298.79799   -1290.1556    386.84273    446.03706   -127.35322     38513.74 
   36700    302.20062   -1317.6314    399.17116    446.25574   -64.818081     38513.74 
   36800    300.74104   -1341.9899    386.92158    403.05638   -150.33726     38513.74 
   36900    290.82058   -1319.4666    390.46944    384.32741   -133.86368     38513.74 
   37000    302.13295   -1287.8107    391.44629    468.04601   -341.92436     38513.74 
   37100    302.08949   -1311.9849    375.58506    427.81426    219.63743     38513.74 
   37200    299.95733   -1317.9641    423.76756    460.38891    629.31719     38513.74 
   37300    289.31105   -1350.7568    384.73466    340.48557    424.18394     38513.74 
   37400    303.95058   -1324.9331    394.71095    442.39658    516.76335     38513.74 
   37500    301.96229   -1287.1289     423.0938     499.6046    449.35253     38513.74 
   37600    308.75371   -1335.0592     395.3583    454.60843    538.21099     38513.74 
   37700    296.79697   -1333.0123    406.66169    413.96296    625.21316     38513.74 
   37800      295.851   -1308.9209    405.62274    432.74345    534.92925     38513.74 
   37900    302.30768   -1328.7021    418.16904    454.66648    136.93097     38513.74 
   38000    306.41106   -1380.5426    405.37648    408.56398     457.5785     38513.74 
   38100    301.82164    -1368.322    419.50801    414.19057    648.99665     38513.74 
   38200     300.5323   -1347.1865    411.77451    421.76996    504.25281     38513.74 
   38300    299.92465   -1352.7567    412.79471    414.47586    317.79321     38513.74 
   38400    292.96459   -1322.6173    423.68128    424.07076    235.39173     38513.74 
   38500    295.24399    -1332.378    390.58672     391.5091   -258.73312     38513.74 
   38600    312.48201   -1324.2994     419.1481    505.99473    153.72811     38513.74 
   38700    294.35236   -1358.0611    415.90421    387.11696    31.764197     38513.74 
   38800     302.1968   -1323.4836    412.71548    453.93058    43.566379     38513.74 
   38900    296.76786   -1320.0985     397.7868    417.87034   -170.44847     38513.74 
   39000    301.88792   -1289.8723    402.71743    476.14897    6.8170567     38513.74 
   39100    300.78486   -1295.9589    422.66712    485.03077   -6.4688146     38513.74 
   39200    292.27495    -1304.356    431.60992    447.14633    44.030648     38513.74 
   39300    296.62281   -1292.3843    433.17611    480.31888   -499.38895     38513.74 
   39400    306.88864   -1312.1693    410.03591     483.7534    129.10077     38513.74 
   39500    300.34848   -1310.4324    393.71761    439.63712    -326.8581     38513.74 
   39600    306.98184   -1317.0001    404.48501    473.79257   -433.39355     38513.74 
   39700    303.26814   -1314.6469    405.23101    460.12098    14.633369     38513.74 
   39800    312.79356   -1298.9911    406.27899    519.84084    62.596029     38513.74 
   39900    305.15145   -1299.1245    411.13198    490.04921    449.11556     38513.74 
   40000    304.90695   -1253.0765    430.90925    554.77035   -320.17139     38513.74 
   40100    308.42559   -1254.8587     413.1638     551.1326    195.72034     38513.74 
   40200     295.0244   -1307.9115    434.26749    458.66471    284.73916     38513.74 
   40300    300.94699    -1322.507    405.56993    442.11763    453.58528     38513.74 
   40400    312.05445   -1325.4096    411.94098    495.74656    578.80837     38513.74 
   40500    300.75867   -1308.5536    424.34528    473.99591    -112.2479     38513.74 
   40600    293.56009   -1293.6947    400.09321    432.09454   -173.91026     38513.74 
   40700    297.28177   -1306.5031    427.06619    463.06588   -93.172442     38513.74 
   40800    293.94321   -1307.6489    419.72385    439.50107   -234.14034     38513.74 
   40900    290.94055   -1267.4781    428.83938    475.22764   -62.075554     38513.74 
   41000    308.82452   -1309.6243    406.35052     491.3553   -265.56055     38513.74 
   41100    304.86605   -1327.2987    425.11649    474.57067   -224.36062     38513.74 
   41200     302.1103    -1309.986    407.72944    462.05156     324.2789     38513.74 
   41300     304.5715   -1312.1571    385.21779     448.4834      214.778     38513.74 
   41400    302.27551   -1320.1823    406.87684    451.74878    572.99225     38513.74 
   41500    294.22865   -1322.6613    391.59881     397.6527    424.39316     38513.74 
   41600    302.55207   -1288.2165     417.9456    496.03222    526.21737     38513.74 
   41700    292.77573   -1291.6641    408.23391    438.72372   -32.902211     38513.74 
   41800     309.1536   -1270.5708    412.36064    537.90498     216.6041     38513.74 
   41900     303.0781   -1295.9869    401.71412    474.40586    483.82238     38513.74 
   42000    300.33599   -1329.3631    393.27127     420.2036   -88.681664     38513.74 
   42100    308.46975    -1314.323    423.79593    502.49985   -214.67305     38513.74 
   42200    292.59638   -1328.4576    410.85011    403.73644   -501.77168     38513.74 
   42300    291.44055   -1316.4107    420.90669    420.62033   -200.62144     38513.74 
   42400    305.39676   -1310.0056    442.84669    511.99063   -358.67468     38513.74 
   42500    291.40655   -1342.4965    430.00604    403.48036    -204.9234     38513.74 
   42600    299.03032   -1315.3881    440.99978    476.01083   -258.57411     38513.74 
   42700    308.62418   -1329.2417    429.34918    493.83181   -241.23342     38513.74 
   42800    304.48069   -1260.9627    426.89762    540.94752   -304.53295     38513.74 
   42900    291.18773    -1298.791    436.48609    452.67767    -440.0317     38513.74 
   43000    299.39961   -1338.2664    411.82035    425.62078    39.103098     38513.74 
   43100    308.22229    -1305.125    427.65315    514.43754   -468.15347     38513.74 
   43200    303.22392   -1313.2863    408.94536    464.99629    43.440949     38513.74 
   43300    300.88214   -1328.6711     410.0538    440.14457   -122.70459     38513.74 
   43400     309.6897    -1337.095    425.08804    486.52918    -109.3264     38513.74 
   43500    309.91986    -1297.234    418.72578    521.06727   -246.98779     38513.74 
   43600    307.24846   -1333.7403    401.74689    455.51824   -129.58212     38513.74 
   43700    298.28501    -1337.413     411.7227    421.34309   -74.609751     38513.74 
   43800    304.09753   -1275.9431    415.22705    512.56627    152.06525     38513.74 
   43900    289.58656   -1329.5164    415.70566    393.94111    54.111329     38513.74 
   44000    287.85688   -1303.8599    411.85733    407.93819     522.8035     38513.74 
   44100    293.92242   -1326.2659     434.3326    435.39893   -930.89914     38513.74 
   44200    314.24237   -1262.3022    433.51569    590.30922   -37.709412     38513.74 
   44300    303.56245   -1277.5251    437.94336    531.28423    49.261102     38513.74 
   44400    289.15252   -1312.1009    436.14968     429.8405   -111.29954     38513.74 
   44500    304.03494   -1305.5569     436.7307    504.17349    53.668454     38513.74 
   44600    295.58864   -1320.2259    439.53688    454.16775    631.54511     38513.74 
   44700    298.99939   -1339.7566    395.55487     406.0577    164.27792     38513.74 
   44800    303.10151   -1341.2183    407.84329    435.40936    377.30296     38513.74 
   44900    292.67258   -1320.8751    426.64255    427.45553    193.82535     38513.74 
   45000    294.09512   -1349.5665    414.25991    392.80559    418.15468     38513.74 
   45100    296.35917     -1335.54    407.14552    409.94199    109.38145     38513.74 
   45200    291.41043   -1349.2865    396.68217    363.38397    180.21044     38513.74 
   45300    308.54437   -1358.3913    410.07465    445.04732     326.5062     38513.74 
   45400    297.65839   -1343.9032     418.5975    418.89792    151.74878     38513.74 
   45500    300.26858   -1325.2778    417.37443    448.08776    96.899651     38513.74 
   45600     298.4965   -1313.1339    411.31969     446.1742    419.84208     38513.74 
   45700    293.53079   -1350.1931    423.74666    399.11727   -240.34265     38513.74 
   45800    301.32287   -1321.1434    414.22328    453.83201   -371.40741     38513.74 
   45900    303.07798   -1358.2405    434.34957    444.78715    321.67581     38513.74 
   46000    311.70636   -1335.4932    424.50295      496.653     393.8958     38513.74 
   46100    294.66529   -1324.1345    406.21304    412.76554    496.71162     38513.74 
   46200    297.01821   -1319.4595    423.23638    445.08954   -64.179103     38513.74 
   46300    307.97701   -1319.4725    426.31191    497.64115     382.5248     38513.74 
   46400    301.61106   -1352.0165    426.60993    436.64703    429.45018     38513.74 
   46500    297.22334   -1375.1487    410.67619    377.76645    110.07526     38513.74 
   46600    293.23148   -1345.1611    421.51545     400.5664   -39.997496     38513.74 
   46700     295.5834   -1337.3487    414.60047    412.08486    338.63178     38513.74 
   46800    305.69268   -1333.8287    424.23503    470.89219   -445.20885     38513.74 
   46900    297.72051   -1305.2608    421.31865    460.54198    204.12152     38513.74 
   47000    293.49905   -1309.8769    445.62627    461.16966   -321.25835     38513.74 
   47100    288.45692   -1277.0317    446.88905    472.50773   -18.745265     38513.74 
   47200    292.54315   -1298.1346    408.33457    431.30353   -501.66672     38513.74 
   47300    298.26983   -1258.4839    435.50923    523.99012   -608.70269     38513.74 
   47400    296.88054   -1254.0283    420.72012    507.38269   -344.11081     38513.74 
   47500    306.00863   -1291.7131    425.24796    515.44753  -0.88615142     38513.74 
   47600    308.06598   -1324.8515    428.60776    494.95983   -244.01609     38513.74 
   47700    289.79375   -1303.2244    436.30644    441.76957   -310.52663     38513.74 
   47800    305.40183    -1271.197    424.91382    532.88923    349.63548     38513.74 
   47900    295.41272   -1294.8985    397.08249    436.24635    77.738064     38513.74 
   48000    293.54439   -1320.2683    415.23057    420.58735    104.18144     38513.74 
   48100    326.58138   -1365.8727    417.73123    526.67631    440.79218     38513.74 
   48200    292.45141   -1323.6138    415.84093    412.91641      422.607     38513.74 
   48300    305.66094    -1328.028    436.70589    489.02051    298.55989     38513.74 
   48400    307.45766   -1346.8936     439.3286    480.89145      323.169     38513.74 
   48500    301.13827    -1319.854    442.32162    482.38609    634.68205     38513.74 
   48600    302.80925   -1256.0672    456.31663    567.71391     381.3532     38513.74 
   48700    296.70116   -1295.8843    426.11145    470.10798     163.3746     38513.74 
   48800    301.29443   -1325.3191     441.0074    476.31205   -16.634446     38513.74 
   48900    313.63127   -1315.0593    428.48948     529.7662    103.21225     38513.74 
   49000    290.29008   -1332.5956    418.63683    396.97015   -190.16433     38513.74 
   49100    288.91647   -1328.1268    449.88509    426.48404    18.932466     38513.74 
   49200    289.33812   -1306.3751    446.25336    446.50813    760.42171     38513.74 
   49300    310.53885   -1340.2861    420.44718    482.53195    798.93838     38513.74 
   49400    305.15986   -1328.4668     435.7268    485.33971    628.34294     38513.74 
   49500    300.97753   -1357.1266    405.52367    407.58967    323.82347     38513.74 
   49600    298.08074   -1336.3746    434.32423     444.0606    561.21906     38513.74 
   49700    295.79331   -1363.7721    429.03773    401.04669   -210.47382     38513.74 
   49800    292.72058     -1340.02    441.77306    423.65792   -445.70166     38513.74 
   49900    295.77825   -1372.7271    433.84663    396.83257    126.27036     38513.74 
   50000     303.4427   -1317.5441    415.13121    467.91228    482.87099     38513.74 
   50100    304.41301   -1386.4046     435.2617    423.56405   -105.42097     38513.74 
   50200    302.68966   -1335.2576     432.4843    464.15116    681.76561     38513.74 
   50300    300.62227   -1346.9729    439.35942    449.97481    983.86998     38513.74 
   50400    307.19057   -1357.7062    437.26965    466.81367    266.21548     38513.74 
   50500    302.21817   -1355.8424    404.98943    413.94229    60.919082     38513.74 
   50600    309.00243   -1370.8954    414.19853    438.73561      217.427     38513.74 
   50700    295.10234   -1385.9951    441.42987    388.09549   -15.238758     38513.74 
   50800     287.3536   -1382.4438    430.73719    345.96135    253.62364     38513.74 
   50900    295.11149   -1370.0969     447.2402    409.84536    441.26105     38513.74 
   51000    298.30108   -1384.0629    454.73454    417.77765    311.50366     38513.74 
   51100    309.03387   -1357.7544    429.89337    467.71349    918.25095     38513.74 
   51200    300.24291   -1369.9336    459.09105    445.03259    166.63644     38513.74 
   51300    301.80408   -1421.6445    456.30808     397.5889    526.42441     38513.74 
   51400    299.91453   -1351.2315    438.83134    441.99208    161.98962     38513.74 
   51500    283.01474   -1358.2605    419.45336    339.26683   -534.72432     38513.74 
   51600    300.31787   -1344.1564    427.65743    439.71463    -16.94126     38513.74 
   51700    291.26301   -1364.8769    435.68927    386.13496   -407.51765     38513.74 
   51800    292.53561   -1340.2215    426.61755    407.46562   -246.47747     38513.74 
   51900    297.04505   -1318.0499    430.64414    454.02804   -516.25163     38513.74 
   52000    295.96425   -1336.1464    425.47151    425.87809   -118.67158     38513.74 
   52100     292.4789   -1413.8664    427.80394    334.75098   -581.15691     38513.74 
   52200    312.56883   -1367.8366    443.07014    486.77159    64.937413     38513.74 
   52300    291.11195    -1357.775    433.00772    389.87313   -5.7381174     38513.74 
   52400     295.5101    -1350.132    454.68392    439.05406    490.33722     38513.74 
   52500     297.8325   -1353.3072    445.71592    437.39861    365.32817     38513.74 
   52600    295.84739   -1389.1005    434.85544     381.7802    188.39909     38513.74 
   52700    292.19122   -1336.8196    453.48428      436.179   -181.18656     38513.74 
   52800    297.42609   -1389.0038    442.57266    396.72344   -457.94665     38513.74 
   52900    306.37453   -1338.1832    447.59361    492.97544   -123.09231     38513.74 
   53000    309.49025   -1344.7114    434.79888    487.72296   -50.078393     38513.74 
   53100    295.26092   -1337.9735     447.6429    443.04625    131.98942     38513.74 
   53200    289.14976   -1318.7623    452.09023    439.10727   -33.937154     38513.74 
   53300    293.61663   -1344.6911    428.48758    409.74779    315.58517     38513.74 
   53400    299.20408   -1376.5764    421.82515    396.43261     463.1203     38513.74 
   53500     305.8156   -1406.5307    423.85121    398.36146    364.09786     38513.74 
   53600    295.33671   -1378.2606    448.65033    404.10888    102.26932     38513.74 
   53700    295.52031   -1345.1307    448.51341     437.9309   -46.154249     38513.74 
   53800    300.90665   -1375.7858     417.2504    400.33712   -267.16098     38513.74 
   53900    298.44423   -1354.6804    437.63785    430.70987   -37.604398     38513.74 
   54000    299.07585   -1380.7518    454.19774     424.0507    47.338503     38513.74 
   54100    307.18556   -1417.2093    469.98394    440.00227    593.28668     38513.74 
   54200    307.87009   -1394.0568    419.58352    415.84562     481.4859     38513.74 
   54300    293.26704   -1354.2199    463.30197    433.45471    220.12308     38513.74 
   54400    293.47626   -1351.7543    441.45872    415.02187    117.31312     38513.74 
   54500    307.06962   -1336.9514    443.38244    493.13513   -283.61152     38513.74 
   54600     300.2531   -1347.4571     436.4442    444.90825    121.02085     38513.74 
   54700    301.33673   -1363.9564    447.56623    444.42454    102.55688     38513.74 
   54800    297.15142   -1353.8674    454.61572    442.66248    64.399854     38513.74 
   54900    303.04562   -1360.2299    449.07949    457.38156   -67.358693     38513.74 
   55000    293.06742   -1402.7668    423.50077    344.20506    442.52375     38513.74 
   55100    296.72155   -1396.4963    448.36888    391.84553    4.6386247     38513.74 
   55200    297.59256   -1359.2158    431.11426    415.80482   -876.08798     38513.74 
   55300    303.94645   -1340.6694    427.17823    459.10888   -644.76445     38513.74 
   55400    299.46472   -1329.5519     443.9704    466.77939   -994.78056     38513.74 
   55500    299.03367   -1362.3452    433.12422    421.19338   -682.62957     38513.74 
   55600    288.30162    -1391.132    429.27421     340.0913   -987.98054     38513.74 
   55700    292.96055   -1345.7528    440.76676    418.00244   -354.86714     38513.74 
   55800    296.25905   -1379.4279    418.43122    376.88764   -638.89459     38513.74 
   55900    296.94698   -1356.4813    444.24567    428.75537    306.01583     38513.74 
   56000    295.71416   -1355.4113    476.10344    456.11582   -335.46698     38513.74 
   56100    297.87296   -1394.9378    446.12632     396.3611   -187.88762     38513.74 
   56200    307.50869   -1420.6947    424.54227    392.53446   -305.22541     38513.74 
   56300    296.04559   -1378.4381    460.70339    419.18567   -180.23733     38513.74 
   56400    308.49353   -1342.1503    448.49238    499.47642    96.473391     38513.74 
   56500    295.01534   -1368.0801     443.2996    407.48732    366.18873     38513.74 
   56600    303.44323   -1344.8395    460.15366    485.64171    642.53636     38513.74 
   56700    291.70685    -1376.829    445.86049    386.35841    680.23517     38513.74 
   56800    312.20815   -1412.2889    481.28695    478.90737    478.07251     38513.74 
   56900    294.02083   -1375.3616    450.01765    402.43279    791.37053     38513.74 
   57000    304.98285    -1382.926    443.64444    437.99886    464.79631     38513.74 
   57100    304.81262   -1385.8255    438.61169    429.29777    673.54713     38513.74 
   57200    296.07566    -1386.736    440.62743    390.94756    573.99848     38513.74 
   57300    302.33341   -1380.0304    444.83699    430.12231   -145.82543     38513.74 
   57400    303.72091   -1435.0954    431.48921     367.9753   -598.58975     38513.74 
   57500    296.88692   -1399.3265    451.00104    392.39421   -539.30083     38513.74 
   57600      305.351   -1464.8067    450.41988    364.55606   -281.89737     38513.74 
   57700    311.36786   -1434.6628      461.486    432.93784   -228.05417     38513.74 
   57800    298.68213   -1393.1104    472.93597    428.65233    782.56234     38513.74 
   57900    293.87748   -1393.2911    450.68315    384.52133    60.476509     38513.74 
   58000    309.06602   -1433.8069    423.27719    385.18993    89.853304     38513.74 
   58100    294.97538   -1381.4012    436.16147    386.84758   -81.610337     38513.74 
   58200    291.80775   -1391.4741    435.10705    361.41551    116.91733     38513.74 
   58300    305.69288   -1387.9178    441.60361    434.17257    57.532729     38513.74 
   58400    304.38518   -1395.6903    447.70285    426.59387   -111.33779     38513.74 
   58500    304.87725   -1431.5827    434.37669    379.59745    747.52329     38513.74 
   58600    290.76348   -1430.6443    444.79596    327.21842    239.84371     38513.74 
   58700    307.52793   -1393.0255    460.80619    456.55446   -464.49714     38513.74 
   58800    300.08747   -1380.3114    437.17432    412.03613   -115.52279     38513.74 
   58900    302.87456   -1334.5519    456.88147    490.08904    124.59096     38513.74 
   59000    299.67991   -1357.4914    451.19474    447.03596    -484.6563     38513.74 
   59100    292.40813   -1312.2472    471.86798    480.11462   -340.45081     38513.74 
   59200    303.73562   -1326.9603    469.13886    513.82649    -126.0212     38513.74 
   59300    293.85609   -1299.0777    482.36855     510.3236   -241.50065     38513.74 
   59400    307.28376   -1337.1311    446.78749    497.32752   -202.03961     38513.74 
   59500    290.99999   -1355.9277    453.32676    411.53381   -44.369927     38513.74 
   59600    303.65536   -1319.3308    456.23234     508.1871    350.97098     38513.74 
   59700    308.83915   -1352.0369    492.75431    535.41257   -86.763537     38513.74 
   59800     293.0413   -1353.2761    454.60515    424.68223   -233.78266     38513.74 
   59900    305.74268   -1381.6909    469.00309    468.02387   -932.12145     38513.74 
   60000    297.25499   -1338.7405    443.94473    447.58615   -474.35941     38513.74 
   60100    301.02651   -1360.0733     457.0982    456.43874   -593.76797     38513.74 
   60200    310.35681    -1349.566     437.4087    489.39148   -302.72154     38513.74 
   60300     297.7661   -1399.4155    441.17966     386.4542    -33.44805     38513.74 
   60400    301.52183   -1382.1123    466.73015    446.26846   -25.317979     38513.74 
   60500     294.6207   -1367.2567    468.12981    431.35874    237.40457     38513.74 
   60600    293.52149   -1379.8995    459.14263    404.76481    93.431661     38513.74 
   60700    303.01483   -1353.5083    447.24979    462.13444    552.46012     38513.74 
   60800     305.5712   -1367.9536     467.3527    479.33638    168.66322     38513.74 
   60900    306.83167   -1391.4191    457.85128    452.06163    390.26179     38513.74 
   61000    311.38266    -1362.308    448.00986    491.88328    137.26912     38513.74 
   61100    305.64867   -1370.6177    483.93838    493.60784    227.35204     38513.74 
   61200    295.17416   -1366.2559    463.30219    430.03133    63.411444     38513.74 
   61300    303.96883    -1361.421    455.56094    466.84106    334.12103     38513.74 
   61400    301.31433   -1364.0908    487.29359    483.91639    397.99339     38513.74 
   61500     301.8081   -1375.8466    460.36639    447.46323    416.90522     38513.74 
   61600     303.7675   -1419.0667    473.80597     426.5312    935.72748     38513.74 
   61700    296.36977   -1379.1012    487.22309    446.50614    508.03484     38513.74 
   61800    304.75196   -1325.7934     453.5251    503.96935    566.07817     38513.74 
   61900    303.78789    -1369.205    468.68053    471.35958    277.95387     38513.74 
   62000    299.61786   -1376.9812    469.75575    445.82704    536.39936     38513.74 
   62100    293.52761   -1393.8108    469.32303     401.0616    247.65273     38513.74 
   62200    292.60071   -1419.7523    454.36614    355.97733   -429.93308     38513.74 
   62300     287.9287   -1411.9927    453.09759    341.36997   -594.01449     38513.74 
   62400    300.17964   -1376.0033    442.67908    422.26524   -123.62437     38513.74 
   62500    288.74405     -1351.05    456.89942    409.79652   -42.891462     38513.74 
   62600    305.86163   -1371.8477     467.8635    477.26464    272.44598     38513.74 
   62700    306.19915    -1367.928    442.14945    456.99455    42.494473     38513.74 
   62800    306.24792   -1404.0221    445.52584    424.49704    146.43144     38513.74 
   62900    308.77071   -1403.4877    442.29439    433.19272    485.10379     38513.74 
   63000    296.21795   -1430.1971    445.28393    352.78553   -329.07858     38513.74 
   63100    310.77198   -1402.6734    467.64104    468.39128    54.553383     38513.74 
   63200    310.72149   -1359.6999    457.15263    500.64835    121.88271     38513.74 
   63300    293.87877   -1346.4625    475.42475    456.09742   -67.041992     38513.74 
   63400    300.52862   -1353.2762    447.92335     451.8125   -214.84405     38513.74 
   63500    306.39709   -1355.4385    461.81779    490.04623    271.97322     38513.74 
   63600    308.46963   -1374.3177    450.08017    468.78882    292.45954     38513.74 
   63700    297.51499   -1396.0956    443.70434    391.16482    102.99165     38513.74 
   63800    305.84147   -1383.1817    478.64926     476.6254       -82.27     38513.74 
   63900    292.84603   -1369.8433    437.09565    389.72373    7.1862021     38513.74 
   64000    295.52486   -1368.9924    458.30952    423.88592   -796.99345     38513.74 
   64100    300.02013   -1358.3675    447.14776    443.64938   -941.64179     38513.74 
   64200     289.9361   -1372.3738    461.73207    398.68862    -1028.127     38513.74 
   64300    303.69252   -1400.8513    459.58494    430.18697   -688.77776     38513.74 
   64400    293.76562   -1405.2306    462.54541    383.93896    -259.6078     38513.74 
   64500     299.0748   -1376.8697     449.6916    423.42189   -82.813856     38513.74 
   64600    309.33181   -1377.9978     464.3737    483.29582   -14.405592     38513.74 
   64700    318.84685   -1383.0391    459.63305    516.48314    47.497469     38513.74 
   64800    300.87058   -1375.3501    447.36813    430.72767    37.650532     38513.74 
   64900    299.41899   -1388.3655    461.01617    424.80501   -204.32873     38513.74 
   65000    310.91394   -1366.2957    454.69421    492.46322   -131.80798     38513.74 
   65100    295.93121   -1378.4582     462.7572    420.70283   -278.09493     38513.74 
   65200    301.93782   -1354.1201    470.75747    480.16656   -265.20968     38513.74 
   65300    304.46511   -1408.2531    464.52774    431.21689    47.289892     38513.74 
   65400    299.92895   -1427.3952    473.97307     401.0352   -851.69857     38513.74 
   65500    301.49598    -1432.643    459.38849    388.27944   -564.87462     38513.74 
   65600    286.52477   -1442.9812    448.17197    299.11581   -564.87927     38513.74 
   65700      306.584    -1430.611     460.2874    414.18744   -631.80365     38513.74 
   65800    299.81011    -1411.985    444.43872    386.37433    -295.6704     38513.74 
   65900    296.19077   -1428.8696    433.56347    342.26985   -457.50275     38513.74 
   66000    296.47931   -1413.3288    454.17572    379.72587   -59.058604     38513.74 
   66100     292.0973   -1434.6804    452.59224    337.00204   -290.26647     38513.74 
   66200      301.072   -1432.4562    447.80015    374.96321    316.33159     38513.74 
   66300    296.01377   -1383.5754    477.51169    430.71292    329.96579     38513.74 
   66400    307.53681    -1406.884    433.62354    415.55341    379.67283     38513.74 
   66500    306.21978   -1418.3542    442.65989    407.17195    350.00864     38513.74 
   66600     297.9457   -1415.7437    454.67681     384.4342    119.64041     38513.74 
   66700     301.6909   -1406.3164    441.92901     398.0268    10.064652     38513.74 
   66800    288.90348   -1441.6997    432.15367    295.12111   -602.09394     38513.74 
   66900    303.97571    -1419.945    449.06533    401.85249   -273.91201     38513.74 
   67000     294.5058   -1407.3984    453.89218    376.46054   -99.461772     38513.74 
   67100    298.03546   -1384.2189    416.31569    378.00323   -394.59081     38513.74 
   67200    300.82809   -1396.4517    437.26134     399.3274     51.28054     38513.74 
   67300    303.05515   -1409.6437    454.87452    413.80586    303.80103     38513.74 
   67400    294.49458   -1415.8015    476.81599    390.93061    488.44393     38513.74 
   67500    298.83249   -1412.6854    476.39558    413.21593    133.51145     38513.74 
   67600    305.02926   -1435.7886    463.84068    405.54195    471.38578     38513.74 
   67700    294.35849   -1367.9993    453.72229    415.02451    322.31772     38513.74 
   67800    311.50524   -1379.3542    431.55173    458.93254    193.40612     38513.74 
   67900    301.80166   -1403.8275    455.85287    414.93973    186.45903     38513.74 
   68000    291.02044    -1411.838    468.81167    371.20085    151.17787     38513.74 
   68100    299.86559   -1419.5598    452.89074    387.50212    393.12252     38513.74 
   68200    306.84505    -1458.965     433.6023    360.32725    76.407188     38513.74 
   68300    309.33906   -1456.2125     446.1573    386.89748   -175.57879     38513.74 
   68400    304.83811   -1444.8158    450.95917    382.77015   -246.76909     38513.74 
   68500    290.89813   -1447.8306    424.62096    290.46515   -236.18907     38513.74 
   68600    297.54508   -1431.8958    454.24513    366.04128    14.218551     38513.74 
   68700    294.50937   -1441.5559    456.45948    344.88643   -471.31764     38513.74 
   68800    300.37516   -1435.6605    430.64799    351.45979   -585.34282     38513.74 
   68900    303.78811   -1442.6465    429.63903    358.87756   -387.26671     38513.74 
   69000    290.86158   -1405.5473    430.59689    338.55933   -266.36501     38513.74 
   69100    301.55603   -1434.9065    439.46734     366.3659   -351.71519     38513.74 
   69200      299.141    -1398.991     482.1738    434.08181    75.501107     38513.74 
   69300    293.90734    -1381.783    464.99148    410.47261   -39.155228     38513.74 
   69400    291.36925   -1426.6999    424.16991     313.2723   -289.45082     38513.74 
   69500    302.39494   -1361.8073    452.27163    456.05784   -101.35143     38513.74 
   69600    295.63165   -1424.6291    441.90369    352.32567   -215.91973     38513.74 
   69700    302.72989   -1391.8052    445.00019     420.3011   -102.58842     38513.74 
   69800    291.88225   -1387.9149    439.13976     369.3439   -259.45528     38513.74 
   69900    296.59069   -1401.1631    466.02532    404.24423      22.8143     38513.74 
   70000    297.03233    -1406.251    461.05706    396.18241    98.284223     38513.74 
   70100    295.33361   -1382.2099    479.45398     430.9492   -694.78374     38513.74 
   70200    303.18197   -1377.7767    446.15224    437.52324   0.30280731     38513.74 
   70300    287.42257     -1428.19    436.86287    306.65232   -291.09878     38513.74 
   70400    303.85345   -1468.2583    442.61276    346.53454   -799.54986     38513.74 
   70500     309.2195   -1457.0457    425.71329    365.08034   -309.68818     38513.74 
   70600    292.40789   -1422.6255     461.9058     359.7731   -684.60917     38513.74 
   70700    302.89651   -1400.7385    468.18896    435.30902    -427.1942     38513.74 
   70800    290.14131     -1437.56    446.51447    319.21155   -518.15683     38513.74 
   70900    299.20583   -1394.5766    463.28016    419.89527   -51.917981     38513.74 
   71000    304.37218   -1378.7571    435.39535    431.16091    398.35349     38513.74 
   71100    299.84836   -1351.5167    466.65114    469.22781   -303.15354     38513.74 
   71200    310.52768   -1376.3581    480.68885    506.65115    -284.7035     38513.74 
   71300    297.69942    -1365.499    465.05059    443.94054    478.98969     38513.74 
   71400    296.93145   -1377.7494    454.76341    417.93489    592.27328     38513.74 
   71500    303.66106   -1395.1817    475.48519    451.61478    454.70503     38513.74 
   71600    291.20798   -1376.1792    483.21472    422.10957     57.14201     38513.74 
   71700    292.88442   -1392.6719    451.46676    381.43959   -12.505484     38513.74 
   71800    302.86425   -1339.4478    438.40285    466.66792   -332.21481     38513.74 
   71900    290.73561   -1373.7669     468.6686    407.84255   -196.39341     38513.74 
   72000    294.47799   -1347.5762    486.21811    468.48314    -231.4818     38513.74 
   72100    306.61938   -1354.4614    497.71999    527.92943    274.46468     38513.74 
   72200    304.68033   -1374.8602    502.23171    503.28574   -241.89051     38513.74 
   72300    297.07063   -1382.4621    449.30372      408.391   -152.58378     38513.74 
   72400    307.37645   -1349.3271    466.05722    504.81983   -490.81193     38513.74 
   72500    285.64995    -1332.143    470.07082    427.90218   -108.84575     38513.74 
   72600    294.67092   -1331.6659    494.33445    493.38102   -125.88077     38513.74 
   72700    302.96182   -1355.8385    469.70538    482.02043   -243.87278     38513.74 
   72800    296.88126   -1361.8368    477.84919    456.70657   -505.10417     38513.74 
   72900    291.32272   -1309.7416    488.69212    494.54267    2.6149654     38513.74 
   73000    299.90145   -1315.2207    461.66932     500.7817   -395.14667     38513.74 
   73100    295.66923   -1300.9337    458.44242    492.72948    233.01149     38513.74 
   73200    299.01257   -1308.5558    466.87361     508.6368    390.39677     38513.74 
   73300    295.49954   -1363.7682    477.06995    447.75619    817.19157     38513.74 
   73400    294.08036   -1322.5367    493.35319    498.86198    334.31267     38513.74 
   73500    313.38102   -1318.4627    457.38156    554.12474    -5.221298     38513.74 
   73600    296.05853   -1330.7158    510.25766     516.5206    -162.2424     38513.74 
   73700    302.62344     -1363.39    481.56835    484.80381   -24.038291     38513.74 
   73800    298.11983   -1348.0582    463.32686     461.5561   0.64446861     38513.74 
   73900    307.51765   -1388.6588    482.50056     482.5691   -312.07633     38513.74 
   74000    294.55551   -1349.5376    479.42203    460.07571   -33.874523     38513.74 
   74100    293.78835   -1377.1259    488.73759    438.33847   -479.60615     38513.74 
   74200    299.43453   -1353.2615    473.76299    472.72604   -697.70832     38513.74 
   74300    298.02422   -1306.8332    501.52809    540.55058   -376.02175     38513.74 
   74400    286.51823   -1330.5316    477.29352    440.65738   -717.41981     38513.74 
   74500    304.12445   -1338.3496    506.31184    541.36613   -347.86778     38513.74 
   74600     297.0026   -1319.5044    445.68296    467.42071   -275.61554     38513.74 
   74700    300.10334   -1342.8927    467.39603    479.74816    80.490475     38513.74 
   74800    292.33024   -1323.0398    480.37571    477.47802   -227.50008     38513.74 
   74900    305.11251   -1326.2542    501.11978    552.73149   -5.8699105     38513.74 
   75000     302.9056   -1360.0683    488.48685    496.31816    28.976209     38513.74 
   75100    310.51475   -1324.6141    502.44271    580.09065   -1.6199378     38513.74 
   75200     298.4877   -1346.6846    507.40688    508.67095   -582.89945     38513.74 
   75300    293.33372   -1357.0323    496.03155    463.67303   -448.11066     38513.74 
   75400    304.55519   -1368.7922    484.35828    490.91516   -479.64668     38513.74 
   75500    300.39376   -1387.1629    463.32083    432.71432    -733.9976     38513.74 
   75600    289.00189   -1416.0442    504.13225     393.1996   -388.46468     38513.74 
   75700    300.37152   -1387.6457    487.58993    456.40012    69.637186     38513.74 
   75800     284.3351   -1368.3705    466.63793    382.30409   -225.09982     38513.74 
   75900     310.6809   -1343.0376    477.75073    537.72549    123.22349     38513.74 
   76000    294.98869   -1412.2852    458.84213     378.7044    133.59778     38513.74 
   76100    303.91388   -1425.7868    473.83831    420.50443   -66.829493     38513.74 
   76200    305.88145   -1376.2154    478.09817    483.22111    8.0961946     38513.74 
   76300    299.11965   -1379.2596    467.67027    439.21319    459.96989     38513.74 
   76400    297.55811   -1360.6942    471.33866    454.39522    47.786712     38513.74 
   76500     302.9216   -1399.5983    483.25798    451.63158    -153.5906     38513.74 
   76600     302.3535   -1366.9379     460.7054    459.17395   -86.988911     38513.74 
   76700    294.28153   -1359.4774    480.14788    449.62443   -822.84694     38513.74 
   76800    306.23313   -1370.2036    499.69622    512.41911   -397.28209     38513.74 
   76900    304.37521   -1412.9789    482.45875     444.0162   -455.58736     38513.74 
   77000    303.97118   -1412.4859    458.19444    418.42026   -19.858623     38513.74 
   77100    298.35205   -1396.2535     481.3138    432.39637     51.25813     38513.74 
   77200     294.7366   -1441.9759    475.12742    364.16055    594.83937     38513.74 
   77300    299.51323   -1402.2075    468.04374    418.41621    235.77868     38513.74 
   77400    303.02455   -1400.6734    466.16789    433.93134    691.48686     38513.74 
   77500    298.27809   -1409.7047    455.69426    392.99177    792.13158     38513.74 
   77600    296.63005   -1403.6007    468.23592    404.19492    314.80464     38513.74 
   77700     294.8676   -1378.4569    471.58451     424.7283    109.01646     38513.74 
   77800    303.17356    -1405.175    462.43703     426.3718     -48.2839     38513.74 
   77900    295.00348   -1346.4212    459.31658    445.10962    340.89723     38513.74 
   78000    285.13022   -1379.2662    486.15505    394.51615    320.75921     38513.74 
   78100    300.95005   -1406.0142    471.96024    425.01457    157.16393     38513.74 
   78200    297.09692   -1377.5277    507.93612    472.07652    277.70179     38513.74 
   78300    293.56258   -1394.3107    497.85133    429.24789    729.23483     38513.74 
   78400    308.60423   -1444.8513    477.02355    425.80644    458.60189     38513.74 
   78500    296.73064   -1485.9302    494.01581     348.0996    175.41602     38513.74 
   78600    293.64838   -1402.0082    435.39285    359.47934   -88.889016     38513.74 
   78700     299.9366   -1432.0914    465.80495    388.20535   -314.66017     38513.74 
   78800    298.69846   -1386.6367    473.28427     435.5481   -298.18382     38513.74 
   78900    291.16916   -1403.0859    481.83143    393.64431    -555.2984     38513.74 
   79000    288.91511    -1379.215     491.4351    416.93968   -451.72884     38513.74 
   79100    306.59616   -1363.9626    471.41174    492.01511   -750.25476     38513.74 
   79200    298.81177   -1316.8048    493.90752    526.51488   -899.79157     38513.74 
   79300     314.3374   -1360.0073    476.22056     535.7381   -1588.0207     38513.74 
   79400    301.56795   -1357.6106    482.37024    486.61859   -543.04336     38513.74 
   79500    295.05336   -1415.9023    466.82285    383.36006   -961.80776     38513.74 
   79600    298.74819    -1379.115    470.92754    440.93762   -1020.1772     38513.74 
   79700    297.48626   -1346.8315    489.91429    486.50912    -389.8438     38513.74 
   79800    291.94805   -1411.8329     468.5826    375.16581   -567.00847     38513.74 
   79900    298.69402   -1383.4519    488.18496    453.61348   -332.97825     38513.74 
   80000    306.44677   -1399.6773    484.12091    468.33496    -178.8771     38513.74 
   80100    292.34243   -1388.8046    478.77043    410.16293   -217.84494     38513.74 
   80200    301.65433   -1394.3786    476.88819    444.75855   -332.14758     38513.74 
   80300    289.16656   -1406.0632    479.30917    379.10108    -14.41237     38513.74 
   80400    296.55679   -1399.6757    488.04559    427.59882    282.58944     38513.74 
   80500    300.50515   -1454.2026    477.18747    380.04428   -138.84249     38513.74 
   80600    290.17171   -1423.5798    480.79274    367.60725    165.41395     38513.74 
   80700    307.30238   -1409.7382    467.12094    445.13796    528.58348     38513.74 
   80800    306.41347   -1408.6937    478.89253    453.93978    103.68295     38513.74 
   80900    301.04334   -1425.3831    477.31421     411.4209   -37.507522     38513.74 
   81000    296.41603    -1437.979    446.86025    347.47445    31.835833     38513.74 
   81100    300.57067    -1402.761    473.61078    428.20502   -242.37949     38513.74 
   81200     300.2466   -1386.4171    482.65062    452.12526   -304.20411     38513.74 
   81300    294.60025    -1401.341    492.52927     421.5816   -1076.5495     38513.74 
   81400    311.73099   -1369.7135    466.18981    504.23083    -661.3247     38513.74 
   81500    292.29297   -1361.4943    493.39065    451.87014   -602.22033     38513.74 
   81600    297.84788   -1373.7413    486.56495    457.88302   -622.36099     38513.74 
   81700    293.44208   -1416.1089    451.92452    360.97871   -759.26578     38513.74 
   81800    306.59774   -1391.8071    502.99017    495.75619   -398.14245     38513.74 
   81900    301.35725   -1394.7317    461.30255    427.47822   -270.46197     38513.74 
   82000    298.38214   -1392.6758    505.23797    460.03425   -295.12078     38513.74 
   82100    292.85937   -1385.2064     458.7802    396.10542    20.533952     38513.74 
   82200    309.75306   -1386.6565    474.64636    486.81213    172.49437     38513.74 
   82300    296.75692   -1368.6315    496.22735    467.72851    767.04182     38513.74 
   82400    297.00512   -1375.8949    479.62271     444.9813    483.20958     38513.74 
   82500    300.52191   -1401.5051    437.09638    392.72632    32.884838     38513.74 
   82600    293.06028   -1379.9353     480.7576    424.26118  -0.31513641     38513.74 
   82700    294.39298    -1375.171    489.04298    443.32926    338.08844     38513.74 
   82800    294.99165   -1366.8137    474.14747    439.49461   -98.384251     38513.74 
   82900    299.30945   -1421.4039     472.3476    402.60344    80.637852     38513.74 
   83000    293.78708   -1423.1882    485.17961    388.71243    932.19265     38513.74 
   83100    298.35447    -1440.395    491.06583    398.01788    42.017969     38513.74 
   83200    293.94844   -1429.0251    458.42074    356.84539    316.19008     38513.74 
   83300    303.67382   -1400.4098    481.96269    452.92175    2.5446624     38513.74 
   83400    302.35711   -1385.9781    504.00423    483.44881    421.36699     38513.74 
   83500    305.18743   -1411.7138    480.14254    446.63296    420.67751     38513.74 
   83600    298.28466   -1400.8188       499.03    445.24305    252.78216     38513.74 
   83700    301.24283   -1411.8776    481.91586    430.42902    543.30312     38513.74 
   83800    287.13133   -1398.2477    469.14493    367.56145    144.94384     38513.74 
   83900    295.39989   -1402.3121    467.12337    398.81572    183.08756     38513.74 
   84000    295.75017   -1408.4814    481.02302     408.1279   -120.20032     38513.74 
   84100    302.24255    -1412.783    478.16332    430.28568     201.2825     38513.74 
   84200    294.05263   -1388.5588    484.96193    424.32345    75.199474     38513.74 
   84300     299.6171   -1406.5477    468.53489    415.03618    -41.64751     38513.74 
   84400    290.77576   -1404.2343    502.35049    411.23837    116.18069     38513.74 
   84500    305.70279   -1387.2808    488.80528    482.05604    81.359842     38513.74 
   84600     298.8148   -1400.4323    484.30884    433.30238    516.44085     38513.74 
   84700    306.87063   -1412.6921     462.6843    435.79764    208.24831     38513.74 
   84800    297.02294   -1409.8722    473.44863    404.91046    1135.0655     38513.74 
   84900    296.89637    -1415.053    460.65169    386.36104    879.43443     38513.74 
   85000    303.40428   -1338.8622    481.49848    512.78788    832.62481     38513.74 
   85100    297.07075   -1411.2432    462.96705    393.27379    651.44997     38513.74 
   85200    292.84558   -1440.3772    496.37878    378.47092    218.41821     38513.74 
   85300    304.74808   -1412.8196    473.26897    436.66951    357.45235     38513.74 
   85400    297.09672   -1417.2177    466.70081    391.15025    224.05275     38513.74 
   85500    298.08876    -1376.134    497.78797    467.80113     575.3853     38513.74 
   85600    294.44406   -1367.7499    460.58163    422.51962    38.969166     38513.74 
   85700    295.35752   -1360.1001    501.24993    474.96289   -479.10506     38513.74 
   85800    297.59276   -1352.2354    475.09597    466.76785   -94.225254     38513.74 
   85900    299.00796   -1324.2223    471.11917    497.19508   -379.09404     38513.74 
   86000    307.36083    -1355.732    485.59142    517.87859   -300.08457     38513.74 
   86100    300.90164   -1377.9633     478.3246    459.21118    63.904029     38513.74 
   86200    308.49033   -1384.6441    464.83508    473.31081   -26.392089     38513.74 
   86300    296.67006   -1371.7584    473.27682    441.25883   -82.613136     38513.74 
   86400    300.46049   -1372.7111    455.78811    439.93472   -359.03467     38513.74 
   86500    301.61257    -1392.989    477.97183    447.04329   -285.58417     38513.74 
   86600    294.86088   -1392.5836    478.50328    417.48992   -706.22768     38513.74 
   86700    304.03854   -1377.5738    485.85186    481.29394   -791.22396     38513.74 
   86800    296.88954   -1376.1355    469.79691    434.39295   -260.43045     38513.74 
   86900    301.95408   -1395.0721    507.49199    476.02252    663.04458     38513.74 
   87000    308.30526    -1409.926    472.25148    454.60962    372.79974     38513.74 
   87100    297.84148   -1431.9835    486.18899    399.23597    550.44838     38513.74 
   87200    288.96413   -1436.4784    485.78388    354.24649   -96.248249     38513.74 
   87300    302.32805   -1388.7103    444.52885    421.11001     149.1412     38513.74 
   87400    309.64165   -1382.8047    475.84706    491.36154    332.36462     38513.74 
   87500     304.5345   -1455.8187    467.75831    387.19525   -127.59892     38513.74 
   87600    294.01326   -1423.3612    464.01909    368.40038   -144.54069     38513.74 
   87700    298.54023   -1396.9843    494.94087    446.14256   -480.39207     38513.74 
   87800    290.89661   -1370.5547    482.13772     425.2509   -235.02946     38513.74 
   87900    302.07189   -1359.0005    479.47061    484.60479   -90.682938     38513.74 
   88000    305.74581   -1445.1455    488.10149    423.68184   -107.22484     38513.74 
   88100    297.67885   -1393.1994    486.10257    437.19919    698.93669     38513.74 
   88200    300.55582   -1381.4564    481.21501    457.04681    397.63667     38513.74 
   88300    295.09063   -1352.5971    482.00705    462.01777    266.00562     38513.74 
   88400    297.16533   -1396.8481    478.32827    423.45714    609.71278     38513.74 
   88500    322.75582   -1447.2083    481.42013    491.75367    512.27799     38513.74 
   88600    297.05577   -1408.7466    475.18295    407.91862    349.19976     38513.74 
   88700    298.85263   -1398.7426    485.67216    436.52626    501.22729     38513.74 
   88800    297.81295   -1430.5018    462.53565     376.9355    452.51717     38513.74 
   88900     293.9438   -1421.3667    457.06912    363.13123   -83.075543     38513.74 
   89000    311.53962   -1422.2188    454.32256    438.99403   -263.12671     38513.74 
   89100    300.80813   -1431.8328    448.60984    375.20468   -262.05394     38513.74 
   89200     305.1586   -1438.7433    481.35522    420.68596    110.04072     38513.74 
   89300    291.53308   -1447.0093    476.79642    346.32929   -394.65131     38513.74 
   89400    299.08606   -1422.5014    486.37415     414.5236   -521.15039     38513.74 
   89500    303.60289   -1396.1075    456.49525    431.43627   -262.78108     38513.74 
   89600     291.9527   -1427.4823    497.58988    388.54472    126.70536     38513.74 
   89700    299.30347   -1379.9177    491.87792    463.59296    191.97566     38513.74 
   89800    308.06992    -1390.955    461.13808    461.40443     658.4032     38513.74 
   89900    300.19183   -1449.4273     451.6967    357.91387    511.24328     38513.74 
   90000    295.78417   -1409.5303    480.50155    406.71105    598.63305     38513.74 
   90100    307.07627   -1415.0704     468.9431    440.60681    730.44261     38513.74 
   90200    293.10201   -1368.5296    492.63604    447.73383    719.92958     38513.74 
   90300      303.609   -1433.0105    478.33082     416.3965    489.30657     38513.74 
   90400    307.92326   -1412.7415    464.80018    442.61773    915.95554     38513.74 
   90500    299.09126    -1435.297    472.84035    388.21771    699.00628     38513.74 
   90600    308.40228   -1397.8143    449.27653    444.18452    531.64323     38513.74 
   90700    318.46434   -1397.5729    494.32266    534.91151     342.1935     38513.74 
   90800    296.34395   -1409.5966    508.85374    437.52481   -31.193269     38513.74 
   90900    302.36421   -1430.5377    454.90602    389.82311   -530.78487     38513.74 
   91000    302.49353   -1397.4286     480.7594    449.36957   -657.15476     38513.74 
[...]
  984700    300.34152   -1484.4334    499.15063     371.0377   -422.23764     38513.74 
  984800    296.64895   -1491.7497    518.20922    366.10457   -244.90828     38513.74 
  984900    292.47515    -1521.448    502.48164    301.83012   -90.296236     38513.74 
  985000    297.00137   -1509.6422    500.97187    332.56628    314.28482     38513.74 
  985100    305.31413   -1530.9763     508.0949    355.89498    104.89364     38513.74 
  985200    294.94932   -1504.0381     503.3732    331.30475    160.98033     38513.74 
  985300    295.88582   -1537.4424     497.1334    295.88983   -171.78611     38513.74 
  985400    297.38139   -1544.6028    516.17346    314.52332   -68.988984     38513.74 
  985500    299.88786   -1497.2895    533.44762    390.42982    -82.18083     38513.74 
  985600    300.84358   -1486.9332    498.50289    370.15736   -162.09876     38513.74 
  985700    314.82594   -1486.1046     544.0422    479.66868    273.12376     38513.74 
  985800    299.92354   -1476.6926    519.70942    397.44974    78.236003     38513.74 
  985900    306.43747   -1525.5518    527.46347    385.76095     118.6868     38513.74 
  986000    299.69826   -1574.4197    500.35745    279.35328   -26.897746     38513.74 
  986100    304.55567   -1514.5302    515.02182    375.84291    117.14987     38513.74 
  986200    307.55748   -1490.5683      519.074    417.41289    260.58876     38513.74 
  986300    288.26765   -1455.7208    505.92679    352.00167    89.174329     38513.74 
  986400    302.39466   -1488.4747    512.32458    389.44214    11.056269     38513.74 
  986500    297.62984   -1507.3844    519.45624    356.14656   -277.40314     38513.74 
  986600    291.19275   -1441.7137    496.01805    369.30962    82.142392     38513.74 
  986700    294.20338   -1491.0805    515.38132    352.90182    107.16828     38513.74 
  986800    303.71942   -1474.3105    517.64784    414.91211    395.10552     38513.74 
  986900    292.42093   -1489.8554    510.90891    341.60517    97.099113     38513.74 
  987000    302.07325   -1485.6756    511.43708     389.9023    -211.7236     38513.74 
  987100    305.91069   -1426.1734    512.63233    467.92932    135.36908     38513.74 
  987200    297.52738   -1497.6829    523.85607    369.78516    77.122158     38513.74 
  987300    310.55615   -1449.3801    500.51026    453.57915    416.69468     38513.74 
  987400    311.21051   -1456.6385    542.02887    490.79442   -285.15476     38513.74 
  987500    295.41109   -1463.0301    490.77572    361.80061    60.858634     38513.74 
  987600    296.73662   -1492.7026    508.55183    355.89027   -263.39741     38513.74 
  987700    286.00546   -1474.2171    537.65029    355.01307   -382.52767     38513.74 
  987800    304.57512   -1498.2404    505.19468    382.39337   -546.41485     38513.74 
  987900    292.99561   -1500.5419    495.61185    318.21679   -746.81555     38513.74 
  988000     299.6704   -1514.8217    525.08944    363.55742   -378.52823     38513.74 
  988100    309.96244    -1550.522    520.11596    369.36174    30.633833     38513.74 
  988200    296.04477   -1569.3708    514.29098     281.8368   -361.34205     38513.74 
  988300    297.43879   -1581.9286    524.91772    286.20108   -326.80511     38513.74 
  988400    301.93511   -1509.4899    497.73504    351.76217    31.393861     38513.74 
  988500    290.89149   -1541.8951    503.10306     274.8528   -541.05672     38513.74 
  988600    290.39323   -1538.5065    494.86715    267.75528    42.538548     38513.74 
  988700    298.58156   -1557.7805     507.5674     298.1595   -37.800581     38513.74 
  988800    297.69943   -1509.0462    528.83866    364.18144    617.48439     38513.74 
  988900    308.91579      -1518.2    496.78525    373.62641   -32.299306     38513.74 
  989000    311.26958   -1547.7148    514.07706    372.03302    315.83673     38513.74 
  989100    298.87933   -1516.6685    493.62897    326.67775    441.98572     38513.74 
  989200    301.36157   -1549.6451    537.33572    348.61757    664.89669     38513.74 
  989300    293.54365   -1522.9743    512.82177     315.4692    391.65777     38513.74 
  989400    299.97895   -1583.0133    490.57757    262.24734   -306.87456     38513.74 
  989500    298.39052   -1572.9071    510.10174    284.70451   -134.73404     38513.74 
  989600     303.6086   -1541.4061    472.64551    302.31372    441.30975     38513.74 
  989700    310.55147   -1537.1464    531.94888    397.23037    615.86675     38513.74 
  989800     304.8823   -1540.4797    505.04841    341.39497   -120.04472     38513.74 
  989900    297.36819   -1532.2726     507.2423    317.86279   -818.09579     38513.74 
  990000    297.22759   -1544.9627    522.17549    319.47096   -202.10166     38513.74 
  990100    293.47365   -1552.8651    530.17855    302.61911    632.81427     38513.74 
  990200    308.26111   -1517.9391    522.30624    396.45187    393.95721     38513.74 
  990300    297.05893   -1500.3991    505.79603    346.89343    340.23691     38513.74 
  990400    305.83665   -1557.3842    506.19537    329.94722    411.95103     38513.74 
  990500    292.85658   -1504.8158     548.8059    366.50917    252.43708     38513.74 
  990600    302.45149   -1530.1661    523.87782    359.56067    80.770868     38513.74 
  990700    307.70329   -1515.9801    548.37086    421.95642   -567.47974     38513.74 
  990800    303.07757   -1508.3689    501.84699    362.15429   -27.971622     38513.74 
  990900     307.1901   -1535.2972    512.75426    364.70518   -283.11747     38513.74 
  991000     307.6206   -1514.6094    532.35968    406.94258   -132.80576     38513.74 
  991100    307.86508   -1509.0045    499.14811    380.43988    206.77899     38513.74 
  991200    300.01148   -1513.2933    517.15948    358.69616    368.67089     38513.74 
  991300    301.29316   -1543.0667    522.00619    339.55747    204.61533     38513.74 
  991400    295.54996   -1490.0507    540.37837     385.0098    112.67786     38513.74 
  991500    283.22545   -1574.0102    523.51432    228.52963    69.424663     38513.74 
  991600    298.45479   -1499.2454    520.89467    369.44935   -308.34081     38513.74 
  991700    303.74263   -1526.7384    512.61636    357.55754    -346.2866     38513.74 
  991800    313.58732   -1510.7597    552.98726    458.36503   -399.44273     38513.74 
  991900    298.62009    -1526.531    501.73517    323.75072    129.84324     38513.74 
  992000    291.91538   -1555.2341    510.71193    273.74645    296.61014     38513.74 
  992100    302.47339   -1497.5809    500.84802    369.21499    396.53157     38513.74 
  992200    301.72541   -1545.2913    495.34521     312.6239    863.30663     38513.74 
  992300    302.70465   -1520.8412    510.00363    356.15454    802.12749     38513.74 
  992400     294.1297   -1546.4391    524.66004    306.48925    476.08425     38513.74 
  992500    307.19539   -1512.3535    471.38756    346.30607   -59.528184     38513.74 
  992600    293.24764   -1517.1479    535.63777    342.77493    201.55265     38513.74 
  992700    296.57377   -1560.6937    513.03367    291.64552     358.0851     38513.74 
  992800    297.85555   -1565.6288    483.61196     263.0772   -96.342199     38513.74 
  992900    298.84899   -1573.5374    525.29218    301.33513   -767.53363     38513.74 
  993000    296.18146    -1561.463    475.29206    251.36296   -1037.7871     38513.74 
  993100    301.59446     -1547.85    509.79103    323.91962   -319.70152     38513.74 
  993200    310.46394   -1574.1888    518.97302    346.81673   -133.49041     38513.74 
  993300    300.87938    -1598.439    485.98358    246.29394    4.1412791     38513.74 
  993400    302.17613   -1560.8387    523.70198    327.46865   -295.81057     38513.74 
  993500    303.41941   -1577.4604     496.9486    289.70812   -544.56952     38513.74 
  993600    284.66558   -1583.1932    512.62317    214.95907   -303.21228     38513.74 
  993700    304.27522   -1532.6884     513.6095    355.00581     -136.136     38513.74 
  993800    292.58319    -1554.913    508.02824     274.3996   -107.91885     38513.74 
  993900    311.64441   -1558.3743    505.31692    354.30616    150.69384     38513.74 
  994000     304.3386    -1528.759    500.90411    346.51606   -310.22393     38513.74 
  994100    297.64147   -1481.5875    510.61255    373.15223   -125.41464     38513.74 
  994200    297.61692   -1504.2971     513.8927    353.61199    461.57613     38513.74 
  994300    294.15999   -1534.6271    517.63228    311.41027    336.21129     38513.74 
  994400    305.48384   -1491.5652    509.04064    397.01826    449.47477     38513.74 
  994500    296.17792   -1577.1243    522.72789    283.12152    102.56627     38513.74 
  994600    290.82423   -1551.2525    526.91369    289.00227    216.34019     38513.74 
  994700      296.446   -1587.1636    508.40038     259.9653   -244.76685     38513.74 
  994800    302.19115   -1562.1285    517.00662    319.55131   -84.819074     38513.74 
  994900    299.42966   -1589.4603    468.24334    230.98562   -635.52389     38513.74 
  995000    308.24301   -1540.7548      503.855    355.10317   -14.935159     38513.74 
  995100    302.04255   -1544.2147    511.92491    331.71234   -198.79084     38513.74 
  995200    303.53619   -1514.5542    512.24382    368.43698    -636.9409     38513.74 
  995300    291.86212   -1557.0692    518.83923    279.79815   -920.43197     38513.74 
  995400    299.63449   -1562.4537    514.67944    305.35334   -385.06322     38513.74 
  995500     302.7735   -1544.9053    527.52001    349.91783   -175.65751     38513.74 
  995600    295.74026   -1611.3912    483.82487    207.97517   -388.73755     38513.74 
  995700    302.05804   -1591.7326    502.52703    274.86656    -393.9671     38513.74 
  995800    292.85095   -1599.9398    504.66458    227.21834     -683.774     38513.74 
  995900     305.0928   -1579.9833    500.98253    298.77613   -131.89651     38513.74 
  996000    293.83248   -1541.2203    516.07167    301.77747   -473.65748     38513.74 
  996100    304.53263   -1536.8349    535.38385    373.79613   -372.05214     38513.74 
  996200    301.58039   -1520.6898    527.59431    368.81955   -338.45103     38513.74 
  996300    301.97489   -1521.3209    495.60906    337.98482    262.14533     38513.74 
  996400    297.06341   -1501.0714    515.71432     356.1597    350.25457     38513.74 
  996500    301.46353   -1551.4706      525.721    335.63772     542.9671     38513.74 
  996600    302.35534     -1519.21    527.35667    373.56144    766.58299     38513.74 
  996700    299.64896   -1555.9959    509.11803    306.31506    468.17865     38513.74 
  996800    308.74221   -1546.0425     556.1233    404.33818    -134.0704     38513.74 
  996900    300.01265   -1570.6931    486.90538    271.04758   -225.60899     38513.74 
  997000    294.90963   -1567.8731     516.9343     280.8516   -120.38238     38513.74 
  997100    293.16537    -1535.016    523.86856    312.76603   -162.69783     38513.74 
  997200    299.76935    -1546.645    509.60314    316.69474    113.16201     38513.74 
  997300    299.46391   -1569.1811    506.18364     289.3597    329.30449     38513.74 
  997400    303.96322   -1568.6543    526.11072     330.1322    278.89138     38513.74 
  997500    296.52061   -1572.8236    527.54323    293.78516    444.05229     38513.74 
  997600    302.32424   -1553.1904    519.33199    331.41588    957.51254     38513.74 
  997700    300.92711   -1524.9492    520.27582    354.29152    605.22347     38513.74 
  997800    303.82743   -1552.8438    533.06079    352.27961    188.63546     38513.74 
  997900    304.76917   -1521.3268    511.26991    366.25852   -102.52648     38513.74 
  998000    288.54181   -1546.7963    502.23639    258.47394    305.81122     38513.74 
  998100    301.51668   -1533.7538    501.68273    329.55626    993.89751     38513.74 
  998200    292.08873   -1540.0639     514.2423    293.22983    457.15712     38513.74 
  998300    295.63337   -1483.1174    522.19463    374.13598    601.33236     38513.74 
  998400    301.45239   -1491.3948    513.27788    383.22015    235.98195     38513.74 
  998500    309.73705   -1547.6919    487.96846    339.02652    37.351606     38513.74 
  998600    296.59318   -1564.1292    496.37263     271.6367      223.007     38513.74 
  998700    308.25899   -1548.0119    517.64816    361.71138   -31.076714     38513.74 
  998800    296.66706   -1534.1619    495.07229     300.6372     247.3408     38513.74 
  998900    306.93156   -1567.8545     535.2014    353.42752    -284.4904     38513.74 
  999000    297.35429   -1553.7804     488.4649    277.51485   -334.83117     38513.74 
  999100    287.34344   -1536.1248     509.8568    271.35409   -197.71738     38513.74 
  999200    305.43355   -1542.4578    516.08209       352.94    488.24812     38513.74 
  999300    302.13116   -1535.7811    507.90578    336.52698   -61.390555     38513.74 
  999400    301.00285   -1496.8871    510.39208    372.81199   -409.76465     38513.74 
  999500    301.21906   -1494.2789    512.98958      378.994    592.02948     38513.74 
  999600    307.39721   -1519.4114    505.66359    374.43561    617.23653     38513.74 
  999700    300.91559   -1524.8679    507.74802      341.793   -85.125354     38513.74 
  999800    298.62175   -1548.5127    518.52395    318.56535   -418.20199     38513.74 
  999900    304.65247   -1531.6759    519.88513    363.99763   -193.75504     38513.74 
 1000000    306.61175   -1462.4079    518.96647    441.19496    122.77597     38513.74 
 1000100    305.17075   -1474.6114    519.42223    422.93977   -183.21788     38513.74 
 1000200     290.5298   -1466.7317    526.70758    371.98733    90.485738     38513.74 
 1000300    310.08208   -1492.8036    522.92705    430.43149   -380.31066     38513.74 
 1000400    303.51306   -1486.2385    510.74966      395.154   -446.41698     38513.74 
 1000500    295.07642    -1484.629    501.29754    349.21222     -370.618     38513.74 
 1000600    303.45963   -1532.2647    534.29949    372.43641   -506.01037     38513.74 
 1000700     294.6819   -1533.2445    499.79189    297.30942    -359.0195     38513.74 
 1000800    297.90218   -1541.7595    544.68422    348.22932    367.19603     38513.74 
 1000900    308.16365   -1536.1607    493.36733    348.85128    529.19947     38513.74 
 1001000    304.88013   -1510.9408    535.43817    401.31387    2.2329593     38513.74 
 1001100    304.06888   -1520.7067     530.2467    382.69294    27.942681     38513.74 
 1001200    303.64409   -1483.2675    521.66751     409.6346   -12.238245     38513.74 
 1001300    299.26063   -1525.8131    516.90507    342.53119   -655.07606     38513.74 
 1001400    297.78522   -1545.6542    497.61092    296.73317     108.9088     38513.74 
 1001500    289.81706   -1564.7543    516.40893    260.44744    179.91953     38513.74 
 1001600    296.80592   -1551.3878    519.44542    308.41161    247.37775     38513.74 
 1001700    300.72006   -1523.8737    497.75545    331.91161    189.48267     38513.74 
 1001800    297.54278   -1485.6228    512.25783     370.3166   -539.75156     38513.74 
 1001900    298.58419   -1473.4072    545.08952    420.06674   -289.99655     38513.74 
 1002000    296.92195   -1477.6739    497.74393    360.94796   -131.34402     38513.74 
 1002100    304.41371   -1516.8901    517.67667    375.49671    117.59775     38513.74 
 1002200    298.58214   -1531.8856    507.77914    324.26877   -486.14002     38513.74 
 1002300     297.0489   -1536.8096    481.19431     285.8359   -40.543896     38513.74 
 1002400    305.71229    -1522.525      473.081    331.13044    47.159047     38513.74 
 1002500     301.5896   -1505.9614    506.07338    362.06871   -483.66561     38513.74 
 1002600     292.3109   -1492.8113    524.71601    351.95947    138.99712     38513.74 
 1002700    307.63545   -1508.7415    525.38219    405.90005    187.97592     38513.74 
 1002800    305.14612   -1546.1509    500.00675    331.87351       184.29     38513.74 
 1002900    294.94069   -1529.5736    491.40481     293.7619   -180.14003     38513.74 
 1003000    294.53967   -1540.0186    492.62426    282.72542   -386.61128     38513.74 
 1003100    302.23645    -1505.322    494.46433    354.02011    416.27122     38513.74 
 1003200      295.661   -1485.7067    535.08302    384.55985    205.18322     38513.74 
 1003300    290.36507   -1462.7314    537.73405    386.27024   -37.095927     38513.74 
 1003400    296.08191   -1479.4265    489.54628    347.20408    536.29588     38513.74 
 1003500    296.96759   -1483.2596    549.94466    407.76907    581.44302     38513.74 
 1003600    293.80302   -1497.7872    494.64849    323.65431    431.51704     38513.74 
 1003700    300.02725   -1480.8621    506.28112    380.32031    870.94973     38513.74 
 1003800    296.84279   -1467.1189     507.0437    380.44525    408.53067     38513.74 
 1003900    293.99998   -1496.4209    499.37548    330.63708    227.90523     38513.74 
 1004000    302.29701   -1461.1304    490.79739     394.8183      770.423     38513.74 
 1004100    300.14573   -1519.0321    513.13823    349.54237   -208.82775     38513.74 
 1004200    290.82934   -1482.3571    502.50764    333.51465   -106.10671     38513.74 
 1004300    294.85589   -1509.4564    502.63715    324.72849   -349.71798     38513.74 
 1004400    302.59673   -1502.3015     463.5625    327.76584   -425.24973     38513.74 
 1004500    309.65721    -1481.286    512.04976    429.15321   -426.13957     38513.74 
 1004600    309.49223   -1466.1964    518.51862    449.96661    152.77905     38513.74 
 1004700    293.49247   -1445.0178     501.0951    381.46793   -229.50477     38513.74 
 1004800    298.88694   -1461.3073    500.75839    389.20278    195.39675     38513.74 
 1004900    303.97606   -1467.3338     519.1929    424.59281    523.41385     38513.74 
 1005000    295.37786   -1486.6237    504.85759    352.13883    180.04957     38513.74 
 1005100    298.09316   -1467.0363    505.83634    384.96701     338.0968     38513.74 
 1005200     304.0217     -1459.06    472.32564     386.2055   -309.48555     38513.74 
 1005300    287.00451   -1462.5499    512.59638    346.13801   -559.24171     38513.74 
 1005400    303.49456   -1440.0591    528.68192     459.1822   -108.87324     38513.74 
 1005500    299.62457   -1464.8246    508.16991    396.42805   -291.19764     38513.74 
 1005600    295.73939   -1435.6303    496.18684    396.09407    204.89982     38513.74 
 1005700    310.41904    -1438.621    499.62165    462.83043     253.1445     38513.74 
 1005730    299.64532   -1451.4921    497.15139     398.8357   -83.489244     38513.74 
Loop time of 599.165 on 32 procs for 1000000 steps with 1516 atoms

Performance: 144.201 ns/day, 0.166 hours/ns, 1668.988 timesteps/s
100.0% CPU use with 32 MPI tasks x no OpenMP threads

MPI task timing breakdown:
Section |  min time  |  avg time  |  max time  |%varavg| %total
---------------------------------------------------------------
Pair    | 244.97     | 268.42     | 293.69     |  82.1 | 44.80
Bond    | 1.4333     | 1.5715     | 1.7156     |   6.3 |  0.26
Neigh   | 39.299     | 39.374     | 39.447     |   0.9 |  6.57
Comm    | 252.25     | 277.38     | 300.04     |  79.9 | 46.29
Output  | 0.39311    | 0.41005    | 0.8274     |  11.7 |  0.07
Modify  | 8.9228     | 9.2497     | 9.5666     |   5.8 |  1.54
Other   |            | 2.763      |            |       |  0.46

Nlocal:        47.3750 ave          73 max          15 min
Histogram: 1 1 2 6 3 5 3 6 3 2
Nghost:        1964.91 ave        2002 max        1920 min
Histogram: 1 2 4 1 2 10 3 4 1 4
Neighs:        5040.12 ave        9848 max        1235 min
Histogram: 1 3 5 3 9 5 2 1 2 1

Total # of neighbors = 161284
Ave neighs/atom = 106.38786
Ave special neighs/atom = 2.0303430
Neighbor list builds = 49716
Dangerous builds = 0
The system volume is 38513.7399314254
Lattice vectors
33.7705834915678 0 0
0 33.7705834915678 0
0 0 33.7705834915678
Total wall time: 0:10:05
