LAMMPS (29 Sep 2021 - Update 1)
# Test LAMMPS input file for single DeFDe

# Initialize simulation

clear

units real
atom_style full
boundary p p p
dielectric 1
special_bonds dreiding

bond_style harmonic
angle_style harmonic
dihedral_style harmonic
improper_style umbrella
pair_style hybrid/overlay hbond/dreiding/lj 4 9.0 11.0 90 lj/cut 8.50000

# Read data file
read_data frag5.dat
Reading data file ...
  triclinic box = (0.0000000 0.0000000 0.0000000) to (15.000000 15.000000 15.000000) with tilt (0.0000000 0.0000000 0.0000000)
  2 by 4 by 4 MPI processor grid
  reading atoms ...
  1506 atoms
  scanning bonds ...
  1 = max bonds/atom
  scanning angles ...
  6 = max angles/atom
  scanning dihedrals ...
  3 = max dihedrals/atom
  reading bonds ...
  1005 bonds
  reading angles ...
  507 angles
  reading dihedrals ...
  3 dihedrals
Finding 1-2 1-3 1-4 neighbors ...
  special bond factors lj:    0        0        1       
  special bond factors coul:  0        0        1       
     4 = max # of 1-2 neighbors
     3 = max # of 1-3 neighbors
     5 = max # of special neighbors
  special bonds CPU = 0.002 seconds
  read_data CPU = 0.016 seconds

# Dreiding potential information

bond_coeff 1 350 1.371
bond_coeff 2 350 1.42
bond_coeff 3 350 0.98

angle_coeff 1 50 109.471
angle_coeff 2 50 104.51

dihedral_coeff 1 0.333333333333333 -1 3

improper_coeff 1 40 0

pair_coeff 1 1 lj/cut 0.0725 3.472
pair_coeff 1 2 lj/cut 0.0830346313293435 3.67898051095681
pair_coeff 1 3 lj/cut 0.0832961583748014 3.43813484319623
pair_coeff 1 4 lj/cut 0.00269258240356725 3.32957895236019
pair_coeff 2 2 lj/cut 0.0951 3.8983
pair_coeff 2 3 lj/cut 0.0953995283007206 3.64309650983885
pair_coeff 2 4 lj/cut 0.00308382878902186 3.52806914614779
pair_coeff 3 3 lj/cut 0.0957 3.4046
pair_coeff 3 4 lj/cut 0.0030935416596516 3.29710294046152
pair_coeff 4 4 lj/cut 1e-04 3.193
pair_coeff 1 3 hbond/dreiding/lj 4 j 9.50 2.75 4 9.0 11.0 90
pair_coeff 3 3 hbond/dreiding/lj 4 j 9.50 2.75 4 9.0 11.0 90

neighbor 2 bin
neigh_modify every 2 one 10000

# Gemoetric relaxation
fix 1 all box/relax iso 1.0 vmax 0.001
minimize 1.0e-4 1.0e-6 10000 10000
WARNING: Using 'neigh_modify every 1 delay 0 check yes' setting during minimization (../min.cpp:188)
Neighbor list info ...
  update every 1 steps, delay 0 steps, check yes
  max neighbors/atom: 10000, page size: 100000
  master list distance cutoff = 13
  ghost atom cutoff = 13
  binsize = 6.5, bins = 3 3 3
  3 neighbor lists, perpetual/occasional/extra = 3 0 0
  (1) pair hbond/dreiding/lj, perpetual, skip from (3)
      attributes: full, newton on
      pair build: skip
      stencil: none
      bin: none
  (2) pair lj/cut, perpetual, half/full from (3)
      attributes: half, newton on
      pair build: halffull/newton
      stencil: none
      bin: none
  (3) neighbor class addition, perpetual
      attributes: full, newton on
      pair build: full/bin
      stencil: full/bin/3d
      bin: standard
Per MPI rank memory allocation (min/avg/max) = 11.60 | 11.93 | 12.17 Mbytes
Step Temp E_pair E_mol TotEng Press Volume 
       0            0 2.6271727e+17    200.46946 2.6271727e+17 2.1350053e+19         3375 
    5697            0   -1085.2108    19.636399   -1065.5744    45.964456    39359.762 
Loop time of 4.58967 on 32 procs for 5697 steps with 1506 atoms

100.0% CPU use with 32 MPI tasks x no OpenMP threads

Minimization stats:
  Stopping criterion = energy tolerance
  Energy initial, next-to-last, final = 
    2.6271727221881e+17  -1064.94878578329  -1065.04957601926
  Force two-norm initial, final = 3.2239858e+19 83.305216
  Force max component initial, final = 1.3745196e+19 34.144917
  Final line search alpha, max atom move = 9.2095084e-06 0.00031445790
  Iterations, force evaluations = 5697 5697

MPI task timing breakdown:
Section |  min time  |  avg time  |  max time  |%varavg| %total
---------------------------------------------------------------
Pair    | 1.3372     | 2.5691     | 3.8313     |  34.2 | 55.98
Bond    | 0.0066039  | 0.011454   | 0.015871   |   1.8 |  0.25
Neigh   | 0.097454   | 0.097749   | 0.097998   |   0.1 |  2.13
Comm    | 0.28678    | 1.5519     | 2.7885     |  44.2 | 33.81
Output  | 0          | 0          | 0          |   0.0 |  0.00
Modify  | 0          | 0          | 0          |   0.0 |  0.00
Other   |            | 0.3595     |            |       |  7.83

Nlocal:        47.0625 ave          64 max          29 min
Histogram: 1 0 5 3 5 5 6 1 5 1
Nghost:        1882.03 ave        1947 max        1830 min
Histogram: 7 4 1 3 1 2 3 8 2 1
Neighs:        4674.22 ave        6718 max        2731 min
Histogram: 1 2 2 7 6 5 3 2 3 1

Total # of neighbors = 149575
Ave neighs/atom = 99.319389
Ave special neighs/atom = 2.0079681
Neighbor list builds = 99
Dangerous builds = 0

# MD simulation
velocity all create 300.0 12345 rot yes dist gaussian
timestep 1.0
fix 2 all nvt temp 300.0 300.0 1

# Compute interaction energy
group WAT molecule <> 2 501
1500 atoms in group WAT
group MOL molecule 1
6 atoms in group MOL

compute w WAT group/group MOL pair yes
fix 3 all ave/time 10 5 100 c_w file outa

# Outputs
thermo 100 # Output thermodynamic data every nth step
#dump mf1 all xyz 10000 mol_*.xyz

# Run
run 1000000
Neighbor list info ...
  update every 2 steps, delay 10 steps, check yes
  max neighbors/atom: 10000, page size: 100000
  master list distance cutoff = 13
  ghost atom cutoff = 13
  binsize = 6.5, bins = 6 6 6
  4 neighbor lists, perpetual/occasional/extra = 3 1 0
  (1) pair hbond/dreiding/lj, perpetual, skip from (4)
      attributes: full, newton on
      pair build: skip
      stencil: none
      bin: none
  (2) pair lj/cut, perpetual, half/full from (4)
      attributes: half, newton on
      pair build: halffull/newton
      stencil: none
      bin: none
  (3) compute group/group, occasional, copy from (2)
      attributes: half, newton on
      pair build: copy
      stencil: none
      bin: none
  (4) neighbor class addition, perpetual
      attributes: full, newton on
      pair build: full/bin
      stencil: full/bin/3d
      bin: standard
Per MPI rank memory allocation (min/avg/max) = 10.45 | 10.47 | 10.73 Mbytes
Step Temp E_pair E_mol TotEng Press Volume 
    5697          300   -1085.2108    19.636399    280.26136    1609.0129    39359.762 
    5700    274.14751   -1070.2688     430.6829    590.27244    161.81028    39359.762 
    5800    291.40075   -1100.3837    113.14692    320.02168    236.31213    39359.762 
    5900    294.91816   -1101.7121    163.25454    384.58044    365.50361    39359.762 
    6000     305.5705   -1091.3224    173.68404    453.18736    319.78146    39359.762 
    6100    296.96819   -1074.5487    163.00102    420.68696    588.67863    39359.762 
    6200    301.40681   -1067.2919     167.6958    452.55072    416.07202    39359.762 
    6300    309.00821   -1094.6254     165.6457    457.26793    523.08746    39359.762 
    6400    293.28668   -1127.3139    169.39183    357.79685    679.70257    39359.762 
    6500    308.68307   -1095.3739    177.57732    466.99242    509.54465    39359.762 
    6600    293.41899   -1053.3049    178.38423    441.39188    210.28787    39359.762 
    6700    285.77994   -1121.2522    182.16458    342.95524    242.48819    39359.762 
    6800    303.84279   -1111.1301    191.99907    443.94389    509.14261    39359.762 
    6900    293.05907   -1085.8289    185.76876    414.63774    497.32822    39359.762 
    7000    302.96476   -1086.9221     191.3038     463.5177    336.42202    39359.762 
    7100    298.09625   -1084.4026     197.6103    450.50298    102.84166    39359.762 
    7200    306.15452   -1104.5887    192.94867    461.80565   -65.424623    39359.762 
    7300    301.73808   -1108.1094    195.62864    441.15222    614.45998    39359.762 
    7400    302.10447     -1092.41    196.56209    459.42876    21.268323    39359.762 
    7500    310.24921   -1079.2801    198.68335    511.21815    178.83826    39359.762 
    7600    301.78453   -1109.6337    189.37844    433.58605    349.02697    39359.762 
    7700    300.07647   -1096.5412    193.94477    443.58241    296.22846    39359.762 
    7800    298.21207     -1072.11    189.65201    455.35695    729.53117    39359.762 
    7900    288.56661    -1130.283     201.9777    366.23892   -3.3567349    39359.762 
    8000    296.62488   -1122.7599     187.8594    395.79401    327.14117    39359.762 
    8100     311.3643   -1168.1703     196.0199    424.66697    683.78236    39359.762 
    8200    295.65832   -1122.8428    204.50501    408.02061    801.56367    39359.762 
    8300    289.68263   -1124.2403    204.75134    380.06177    416.58227    39359.762 
    8400    296.71466   -1104.0986    202.69006    429.68879    491.22956    39359.762 
    8500     294.9152   -1121.5674    200.41137    401.86869    260.69561    39359.762 
    8600    304.52227   -1090.3982      226.195    501.91997    511.89137    39359.762 
    8700    302.15458   -1108.2158    217.06288    464.34854    207.72096    39359.762 
    8800    309.53461   -1095.8302    200.39066    493.16961    257.23514    39359.762 
    8900    292.11186    -1111.813    218.92332    417.55893    313.48852    39359.762 
    9000    303.04431   -1149.8779      213.152    422.76692    127.02688    39359.762 
    9100    291.58652   -1142.5558    205.69811    371.23423    38.093619    39359.762 
    9200    300.11153   -1178.2982    221.05177    389.08968    544.55638    39359.762 
    9300    294.04625    -1146.901    223.86735    396.09288    766.75195    39359.762 
    9400    300.37893   -1146.8767    230.00669    430.66571    454.74559    39359.762 
    9500    296.45691   -1167.3688    226.80092    389.37316    604.09219    39359.762 
    9600    296.70108    -1138.145    221.50237    414.39377    556.64439    39359.762 
    9700    291.64639   -1101.7918    222.59279    429.16144    21.522408    39359.762 
    9800    302.23561   -1114.1703    226.81028    468.50496    412.68687    39359.762 
    9900      304.391   -1073.7062     226.6907    518.51876   -36.193191    39359.762 
   10000    301.56891   -1108.7161    218.13264    462.29064    161.10231    39359.762 
   10100    309.63546   -1142.5303    219.46225     465.9935    109.17507    39359.762 
   10200    308.08937   -1123.9351    226.04811    484.23868      -11.913    39359.762 
   10300     296.7939   -1113.7922    230.81423    448.47479   -225.60764    39359.762 
   10400    296.61246   -1118.5976    237.11362    449.15484     147.3447    39359.762 
   10500    293.81047   -1128.3147    225.52862    415.28265    626.68462    39359.762 
   10600    309.30327    -1094.579      231.075    524.06732     53.88358    39359.762 
   10700    299.96861   -1071.1608    231.54518    506.07933     461.3658    39359.762 
   10800    307.46591   -1102.9765    241.03545    517.38767    359.90832    39359.762 
   10900    300.88742   -1112.3782    241.70675    479.14533    953.61143    39359.762 
   11000    302.59834   -1124.0629    233.34813    466.77742    275.03318    39359.762 
   11100    302.34152   -1117.6665    244.67658    483.35017     148.6701    39359.762 
   11200    289.84241   -1148.1764    246.03143    398.12264    236.08552    39359.762 
   11300    296.37729   -1125.0126    253.95738     458.5286    214.63456    39359.762 
   11400    307.74466   -1133.3454     245.2191    492.45287   -169.17807    39359.762 
   11500    299.01537   -1122.6432    244.72245    463.49782    166.88779    39359.762 
   11600    290.22148   -1148.8081    257.10623    410.26625    697.58271    39359.762 
   11700    306.60739   -1144.1627    242.58926    473.90391    773.77174    39359.762 
   11800    300.48021   -1154.5601    254.14177    447.57171    341.20309    39359.762 
   11900    294.53855   -1143.1246    251.84207    430.05247    68.893443    39359.762 
   12000     295.0025   -1138.8793    249.93907    434.47612   -13.933326    39359.762 
   12100    294.38864   -1146.0638    249.68756    424.28631    527.65769    39359.762 
   12200    299.40986   -1114.0943    265.14801    494.24207    988.30378    39359.762 
   12300    295.47282   -1158.3955    254.05494    421.18573    384.52994    39359.762 
   12400    291.55226   -1131.7463    246.87244    423.06428    445.33781    39359.762 
   12500    292.23846    -1150.922    247.54686    407.64139    362.65719    39359.762 
   12600    298.76534    -1122.286    260.03076    478.04163    545.32181    39359.762 
   12700    301.67364    -1139.101    253.31677    467.55963    289.89308    39359.762 
   12800    303.60729   -1109.8335    270.60382    522.78879    276.72573    39359.762 
   12900    293.16558   -1103.1149    249.59658    461.65738    92.916513    39359.762 
   13000    305.01145   -1131.4389    264.63562    501.51446   -211.77289    39359.762 
   13100    296.27398   -1112.7508    248.55802    464.92754    526.68149    39359.762 
   13200    295.15858   -1103.2771    270.84114    491.68059    143.45255    39359.762 
   13300    300.93049   -1065.4908    258.29137    542.81055    935.12356    39359.762 
   13400    300.86865   -1115.1108    248.08124    482.70302    706.26971    39359.762 
   13500    289.13365   -1124.3952     250.2761    422.96895    329.22842    39359.762 
   13600    296.11342   -1165.1569    250.70814    413.95132    701.51895    39359.762 
   13700    306.94915   -1150.9833    266.04871    492.07592     430.0666    39359.762 
   13800    295.57389   -1146.8923    252.51759    431.60494    408.97238    39359.762 
   13900      308.112   -1145.7629    248.16022    484.62449    418.38137    39359.762 
   14000    300.53366   -1155.6104    265.63962    458.25901    565.15471    39359.762 
   14100    300.43714   -1105.8158    249.89192    491.87289    511.59351    39359.762 
   14200    312.73635   -1157.8793    266.13464    511.22788    512.09637    39359.762 
   14300    298.92221   -1136.0544    263.55203    468.49827     243.9211    39359.762 
   14400    295.36466   -1138.1434    249.38843    436.28609    559.32834    39359.762 
   14500     297.3638   -1137.1639    280.91468     477.7602    82.905585    39359.762 
   14600    300.33692   -1140.2146    270.98299    478.11562     87.49979    39359.762 
   14700    293.59046   -1113.6434    257.00383    460.44221    225.43232    39359.762 
   14800    302.67802   -1138.2017    286.83454    506.48253   -88.255132    39359.762 
   14900     306.8286   -1145.2655    271.58303    502.78717     187.9995    39359.762 
   15000    305.77523    -1190.327    274.07675    455.49381    127.69374    39359.762 
   15100    316.55821   -1173.4427    285.15777    531.83297    190.52054    39359.762 
   15200    311.51301   -1165.8962    265.28997     496.8782    557.92907    39359.762 
   15300    286.29863   -1182.5143    266.29344     368.1489    468.08406    39359.762 
   15400    300.68358   -1194.4582    267.32532    421.76951    464.40268    39359.762 
   15500    299.46276   -1185.3287     259.6527    417.74959    422.29762    39359.762 
   15600    308.37773   -1177.3536    281.46336    487.52898    311.83928    39359.762 
   15700    304.05007   -1133.4285    263.64336     494.2197    615.71468    39359.762 
   15800    304.50914   -1141.5286      283.584     508.1197   -231.14986    39359.762 
   15900    296.32498   -1182.8138    270.91384    417.44918    82.968586    39359.762 
   16000    304.91695   -1114.6129    302.89753    556.17838    205.67399    39359.762 
   16100    300.62406   -1131.9055    281.14545    497.87523   -48.758278    39359.762 
   16200    296.51505   -1191.1687    275.43519    414.46838    154.02588    39359.762 
   16300    306.47805   -1210.5924     286.3254    450.63009    452.51563    39359.762 
   16400    287.61379   -1156.0375    297.07298    431.30523    337.64625    39359.762 
   16500    303.74916   -1185.9113    285.75921    462.50286    320.44974    39359.762 
   16600    305.67756   -1207.6999    292.26125    455.86731    364.04163    39359.762 
   16700    302.15916    -1163.893    286.78395    478.41294    768.47655    39359.762 
   16800    310.01544   -1156.0984    276.07033    510.73814    359.34084    39359.762 
   16900    298.04917   -1188.1622    295.68233     444.6042   -30.695588    39359.762 
   17000    311.68245   -1159.3633    295.86205    534.74333    220.91998    39359.762 
   17100     304.1114   -1198.5434    290.25905    455.99556     319.5537    39359.762 
   17200    302.96097   -1208.2956    301.23243    452.05586   -26.633126    39359.762 
   17300    297.40859   -1226.2752    278.00747    385.94259    22.382975    39359.762 
   17400    302.15392   -1190.5581    290.26948    455.20986    170.79678    39359.762 
   17500    287.35703   -1215.6882    283.88167    357.31131   -304.09184    39359.762 
   17600    306.05532   -1163.8097    279.29595    488.48693    103.85228    39359.762 
   17700    307.47686   -1211.8993    304.74984    472.22837    272.16463    39359.762 
   17800    307.35133   -1188.9479    297.91824    487.78506    487.05199    39359.762 
   17900    303.33164   -1174.6431     289.2852    475.42394    337.59964    39359.762 
   18000     290.5091   -1186.2104    306.60536    423.65338    513.56896    39359.762 
   18100    293.89404   -1169.0578     286.4519    435.83772    306.41733    39359.762 
   18200    306.74404   -1158.5324    301.07394    518.63189    227.15662    39359.762 
   18300    298.88052   -1152.9367    296.84461    484.72159    60.694863    39359.762 
   18400    304.38821   -1167.2139    297.68591    495.99382    679.19384    39359.762 
   18500    294.13599   -1175.7218    303.62395    447.43125    388.49018    39359.762 
   18600    295.15303     -1162.68    295.76169    457.17329    566.89487    39359.762 
   18700    287.53698   -1154.9021    300.98889    436.01195    320.83116    39359.762 
   18800    291.15596   -1153.8303    310.52004    462.85004    400.87712    39359.762 
   18900     296.5955   -1201.6376    310.68313    439.60822    609.89942    39359.762 
   19000    297.56698   -1168.7037    297.08058    463.29778    477.26433    39359.762 
   19100    296.87792   -1146.0683    308.26893    494.03038    621.15873    39359.762 
   19200     294.0783   -1137.0953    313.10098    495.27596    335.35495    39359.762 
   19300    294.75919   -1179.9881    306.47068    448.80736   -23.487196    39359.762 
   19400    296.01695   -1159.9209     306.4119    474.45831    658.04997    39359.762 
   19500    296.41143   -1179.5906    304.08722    454.23361    69.439955    39359.762 
   19600    297.68595   -1165.3265    298.01016    468.13829    293.52342    39359.762 
   19700    294.03543   -1134.2888    300.98515    485.77428    422.76981    39359.762 
   19800    295.58477    -1180.832    324.16675    469.36318    540.66695    39359.762 
   19900    294.98035   -1207.2435    308.19354    424.26702   -56.224369    39359.762 
   20000    298.11812   -1179.9562    313.64084    471.07806    155.22846    39359.762 
   20100    299.29613   -1207.9867     324.1581    458.84949    66.605502    39359.762 
   20200    307.40657   -1205.4614    291.13965     464.7407    100.33353    39359.762 
   20300    300.53849   -1200.5167    303.11327    450.84802   -366.54826    39359.762 
   20400     306.4488   -1176.2043    298.39628    496.95784    94.264977    39359.762 
   20500    296.01511   -1223.0554    311.52001     416.4236    60.757252    39359.762 
   20600    305.81757   -1212.2933    298.92562    458.56636    54.959054    39359.762 
   20700    299.20722   -1229.1149    321.35065    434.51499   -390.95569    39359.762 
   20800    283.87747   -1222.2089    314.20081    365.50007    83.325711    39359.762 
   20900    301.47495   -1222.8141    310.37493    440.01333   -286.68857    39359.762 
   21000    297.51617   -1226.3065    317.69323     426.0797    457.98244    39359.762 
   21100     311.1791   -1216.5006    322.80655    502.29247    751.52769    39359.762 
   21200     297.3585   -1187.5894      294.658    441.05426    375.34977    39359.762 
   21300    314.52569   -1233.7276    328.47661    505.74873    130.50304    39359.762 
   21400    299.41449   -1202.5229    320.50635    461.19253   -309.83575    39359.762 
   21500    302.63685   -1195.1608     296.7605    459.26469   -176.83164    39359.762 
   21600     306.4077   -1231.5707    329.53061    472.54134    53.933186    39359.762 
   21700    291.63437   -1202.3374     309.6765     415.6456   -266.84617    39359.762 
   21800    308.70894   -1230.7129    326.76208    480.95424   -191.21164    39359.762 
   21900    301.15898   -1185.0181    318.52212    484.53911   -90.498365    39359.762 
   22000    309.92413    -1175.442    324.61687    539.53144    167.34971    39359.762 
   22100    304.32678   -1181.4284    330.63654    514.45429    210.91679    39359.762 
   22200    301.19414   -1194.9351    319.34983    475.60751    255.80092    39359.762 
   22300    295.39552   -1216.5573    325.19526    433.81746    19.789558    39359.762 
   22400    297.53165   -1236.3551    310.75366      409.161    339.31349    39359.762 
   22500    299.51996   -1216.7396    331.20977    458.15242    304.48723    39359.762 
   22600    296.54826   -1227.4917     331.0382    433.89733    59.638523    39359.762 
   22700    294.57521   -1198.4761    342.90531    465.92865    346.36255    39359.762 
   22800    306.95429   -1193.1885    328.71434    512.55941    565.10563    39359.762 
   22900      300.414    -1184.858    342.95931    505.79433    294.41031    39359.762 
   23000      305.811   -1220.9045    319.00515    470.00519    -8.425383    39359.762 
   23100    306.23581   -1213.8846    332.92013    492.84591   -68.827917    39359.762 
   23200    300.19946   -1218.7878    333.86507    461.80784   -175.29037    39359.762 
   23300    308.21457   -1228.4651    319.85685    474.07905   -297.65077    39359.762 
   23400    296.90453   -1231.8634    318.95087    419.03654   -306.16613    39359.762 
   23500    296.55912   -1227.9873    311.13534    413.54756   -385.49846    39359.762 
   23600      299.326   -1179.6963    338.09605    501.21184   -53.938433    39359.762 
   23700    302.89545   -1254.6529    323.52602    427.69821    479.14131    39359.762 
   23800    298.40305    -1299.175    319.35783    358.85448    458.37759    39359.762 
   23900     318.3159   -1297.0857    314.30762    445.22492     508.1169    39359.762 
   24000    298.95187   -1221.6577    315.95022    435.42626    81.131465    39359.762 
   24100    300.99823   -1234.8068    325.39157    440.89864   -137.10184    39359.762 
   24200    297.42076   -1236.1597    344.15779    442.26302    239.11736    39359.762 
   24300    299.57906   -1246.3643    327.41877    425.00187   -233.52252    39359.762 
   24400    299.00143   -1249.3884    320.00111    411.96872    47.106304    39359.762 
   24500    286.83313   -1266.9655    335.77075    355.57278   -452.80967    39359.762 
   24600    293.49373   -1272.6941    330.64063    374.59439   -572.53874    39359.762 
   24700    291.46388   -1204.5923    336.43031    439.37973   -218.94534    39359.762 
   24800    300.38906   -1219.3622    327.15724    455.37616   -599.44341    39359.762 
   24900    303.30258   -1204.9637    338.88634    494.57418   -82.180188    39359.762 
   25000    303.55787   -1229.2975    331.50061    463.99987       332.09    39359.762 
   25100    289.56759   -1238.2037    349.14626    409.97732    137.00468    39359.762 
   25200    310.94094   -1241.3645    318.34828     471.9019    134.89427    39359.762 
   25300    306.82024   -1254.8905    329.94284    451.48449    349.97481    39359.762 
   25400    309.01957    -1340.058     327.9297    374.17029   -22.258779    39359.762 
   25500    293.54829   -1306.1296    314.68343    325.44637    224.69277    39359.762 
   25600    305.89551   -1260.6876    334.93699    446.53304    613.83596    39359.762 
   25700    295.58405   -1317.0005    338.71177    347.73657    67.188981    39359.762 
   25800    305.00306    -1289.836    335.14369    413.58776    311.47554    39359.762 
   25900    303.04903    -1240.411    333.18917    452.29223    798.09373    39359.762 
   26000     300.9821    -1251.774    309.67812    408.14572    185.70556    39359.762 
   26100    305.73563   -1283.2257    332.52479    420.86553    726.52819    39359.762 
   26200     308.2516    -1251.824    353.87251    484.90193    335.19879    39359.762 
   26300    300.69283   -1298.4951    329.00712    379.45587    120.88688    39359.762 
   26400    303.39172   -1270.3619     326.0514    416.74092    466.04441    39359.762 
   26500    305.07072   -1283.5712    344.19906    429.21151    391.31265    39359.762 
   26600    307.06959   -1281.1642    339.91471    436.30132    411.59914    39359.762 
   26700    299.91213   -1287.9525    337.66263    395.15165    479.84149    39359.762 
   26800    297.67466   -1273.2508    340.97047    403.12363    232.56897    39359.762 
   26900    307.61254   -1288.8499    333.00199    424.13857    566.16949    39359.762 
   27000    305.14304   -1289.4838    346.79959    426.22388     436.1835    39359.762 
   27100    306.20632   -1256.7616     349.5123    466.42876    469.99501    39359.762 
   27200    297.78128   -1250.6616    348.80687    434.02753   -162.54835    39359.762 
   27300    282.08941   -1197.1304    341.14198     409.4983   -381.67747    39359.762 
   27400    302.21168   -1244.9395    330.50996    441.32804    168.81088    39359.762 
   27500    298.21996   -1270.5114    340.43542    407.77434   -281.38558    39359.762 
   27600    293.41957   -1272.6818    339.60841    383.24176   -121.43604    39359.762 
   27700    302.71759   -1249.8499    350.51873    458.69601    139.53766    39359.762 
   27800    299.62253   -1290.2374    358.67883    412.58382    427.46932    39359.762 
   27900    300.34257   -1259.4566    353.40614    441.32212    719.45715    39359.762 
   28000     299.5333   -1283.9097    353.29844    413.13078    665.11034    39359.762 
   28100    306.96664   -1290.9746    367.40534    453.51966    384.78252    39359.762 
   28200    310.58862   -1258.2412    359.17941    494.27577    210.28665    39359.762 
   28300     294.2455   -1291.5261    371.32475    399.81899    25.387196    39359.762 
   28400    304.66164   -1246.2698    354.01195    474.49059    548.45373    39359.762 
   28500    293.79901   -1245.0818    332.24927    405.18482   -160.63292    39359.762 
   28600    298.77069    -1270.592    358.28798    428.01684   -102.64949    39359.762 
   28700    301.45273   -1282.8337    348.84925    418.36837   -281.68214    39359.762 
   28800    296.06391   -1245.8164    353.76437    436.12593    129.35302    39359.762 
   28900     298.6723   -1274.5825    344.31352    409.61053   -150.01925    39359.762 
   29000    303.00092   -1328.7809    349.76392    380.28127    309.37989    39359.762 
   29100    296.03322   -1269.4495    373.14552    431.73633     264.8474    39359.762 
   29200    287.88378   -1281.5421     352.7961    362.73493   -127.72659    39359.762 
   29300    293.70837   -1262.8136    337.60746    392.40465   -18.651052    39359.762 
   29400    294.00817   -1284.9779    341.82338    375.80114   -355.80341    39359.762 
   29500    299.62068   -1250.9901    353.56578    446.70975    238.23101    39359.762 
   29600    303.74039   -1273.0201    341.83529     431.4308     456.3518    39359.762 
   29700    294.21906   -1288.5136    356.27519    387.66337     349.4996    39359.762 
   29800    312.26222   -1256.5887    363.91609    508.17287    815.28617    39359.762 
   29900    301.66161   -1248.0821    355.93951    461.14735    592.39039    39359.762 
   30000    299.97447   -1251.4102    373.65544    467.96648    296.80714    39359.762 
   30100    314.11121   -1266.5651    351.60442    494.17968    250.21421    39359.762 
   30200    297.91247   -1260.8761    343.88538    419.48016    52.971523    39359.762 
   30300    306.44344   -1250.1135    349.72567     474.3539    223.58544    39359.762 
   30400    300.85786   -1194.3847    371.65616    526.95567    636.00958    39359.762 
   30500     296.0956    -1256.514    358.36636    430.17245    627.12589    39359.762 
   30600    299.81454   -1234.2231    356.62261    467.40329    257.69378    39359.762 
   30700    312.53819   -1266.9019    347.39799    482.57967    250.72992    39359.762 
   30800     290.9901    -1284.068    379.70104     401.0493   -147.43289    39359.762 
   30900    301.18762   -1277.0369    337.53331    411.66002   -57.862597    39359.762 
   31000    290.70415   -1265.8401    367.71051    406.00391   0.23639417    39359.762 
   31100    301.30131   -1228.5272     351.6873    474.83368   -977.34907    39359.762 
   31200    295.12375   -1216.8597    363.84456    470.94516   -341.71561    39359.762 
   31300    297.32947   -1256.7762    350.59506    427.67429   -250.97943    39359.762 
   31400    298.05679   -1252.5697    355.89138    440.43993   -112.54438    39359.762 
   31500    291.46604   -1272.3517    361.11113     396.3108    55.910428    39359.762 
   31600    299.96862   -1253.9038    364.38471     456.1759    396.19647    39359.762 
   31700    306.42849    -1275.183    339.63997    439.13169    607.61108    39359.762 
   31800    296.72565   -1228.1554    384.63421    487.62539    366.42394    39359.762 
   31900    293.05691   -1265.3048    358.32105    407.70447     127.8283    39359.762 
   32000    310.64741   -1193.7042    367.21404    567.11113    346.24838    39359.762 
   32100    306.58613   -1216.7434    383.12689    541.76539    291.22202    39359.762 
   32200    311.57662   -1244.6742    373.26106    526.35675   -296.24435    39359.762 
   32300    293.51865   -1238.1358    366.98138    445.60519   -34.698158    39359.762 
   32400    302.27523   -1219.1612    341.98583    478.86737   -480.50296    39359.762 
   32500    307.35443   -1257.8147    374.25086    495.26475   -563.03168    39359.762 
   32600    297.04935   -1284.1499    346.74359    395.19245   -258.68102    39359.762 
   32700    310.47283   -1249.7993    351.59747    494.61624    -226.3291    39359.762 
   32800    300.86295   -1279.3758    357.53947    427.87072    234.46643    39359.762 
   32900     299.8874    -1246.297    368.91787    467.95143   -132.03401    39359.762 
   33000    303.33893   -1255.0941    351.47876    457.19927   -20.796089    39359.762 
   33100    304.86248   -1254.4132    358.00446    471.24067   -140.05018    39359.762 
   33200    308.98099   -1266.5856    384.42135     503.9613    -255.8695    39359.762 
   33300    307.59917   -1241.5258    365.64044    504.04117   -276.43895    39359.762 
   33400    289.95135   -1238.2057    344.20707    406.75763   -205.40445    39359.762 
   33500    301.95638   -1281.0285    357.89663    431.48047    69.272602    39359.762 
   33600    301.43842   -1253.7802     347.6473    446.15575   -229.05728    39359.762 
   33700     297.1057   -1231.1554    374.37553    476.07164    12.532317    39359.762 
   33800    301.29426   -1292.4932    366.74973    425.89853     194.6675    39359.762 
   33900    298.07276   -1260.1995    369.10731    446.09771    53.443642    39359.762 
   34000    309.33407   -1294.6298    371.31031       464.39    417.87921    39359.762 
   34100    309.46623   -1326.0047    362.76649     425.0642    288.47628    39359.762 
   34200    291.25046   -1310.0461    379.09792    375.63604    329.37518    39359.762 
   34300    291.99257   -1337.6011     365.2029    337.51528    109.80936    39359.762 
   34400    290.78834    -1335.032    357.19744    326.67656    380.19449    39359.762 
   34500    293.45514   -1314.6416    349.64621    351.47936   -69.366351    39359.762 
   34600      297.955   -1298.8016    366.28482    404.14487   -358.89061    39359.762 
   34700    288.83355   -1288.8203    358.01151     364.9329   -446.28771    39359.762 
   34800    312.51453   -1311.2371    351.64126    442.38157   -516.94163    39359.762 
   34900    298.09615    -1309.428    364.69329    392.56011   -548.38988    39359.762 
   35000    293.67185   -1266.4178    366.62309    417.65218    -169.2221    39359.762 
   35100    285.46756   -1335.1443    379.25894    324.75615     278.4297    39359.762 
   35200    301.89248    -1334.709    359.10651    378.72317   -32.958353    39359.762 
   35300    304.24518   -1347.4247    357.13967    374.59508    6.2251229    39359.762 
   35400    298.76743   -1335.5136    361.12627    365.91897   -434.65612    39359.762 
   35500    302.00785   -1321.6749     369.2744    402.44273    369.59915    39359.762 
   35600    309.27026   -1297.0547    348.36858    438.73714   -175.05566    39359.762 
   35700     299.3221   -1335.2774     350.4228       357.94   -241.06506    39359.762 
   35800    293.27049   -1302.6015    366.98154    380.02644    59.624717    39359.762 
   35900    292.95077   -1276.2107    366.76298    404.76433    457.18536    39359.762 
   36000    289.92265   -1341.2361    364.30233    323.69381    159.45872    39359.762 
   36100    291.80961   -1342.3817    346.61901    313.32998    112.87346    39359.762 
   36200    289.98265   -1334.4385    367.38078    333.83901    206.38957    39359.762 
   36300    297.14982   -1338.4541    355.25972    349.85515    212.93283    39359.762 
   36400    303.23662   -1343.1375    353.60453    370.82261    548.65291    39359.762 
   36500    293.87789   -1372.3742    357.64166    303.63865    318.48535    39359.762 
   36600     299.9045   -1356.1599    375.09523     364.3427    560.37149    39359.762 
   36700    295.03739   -1335.5613     375.7617    363.77332    639.26789    39359.762 
   36800    293.35975   -1354.1695    356.19506    318.07233     444.5129    39359.762 
   36900    299.41328    -1337.585     372.7682     378.3868    432.69064    39359.762 
   37000    300.12308   -1317.6643    342.14301    370.86658    699.18815    39359.762 
   37100    307.28454   -1326.8856    372.41805    424.04749    778.43914    39359.762 
   37200    301.27779   -1345.8398     339.0258    344.75406    784.71805    39359.762 
   37300    295.32624   -1331.3306    358.60821    352.14628    748.95903    39359.762 
   37400    300.15783   -1332.7492    377.98211    391.77673    244.50106    39359.762 
   37500    307.79439   -1312.7753     356.2058    424.23276   -99.779284    39359.762 
   37600    304.43122   -1327.7152    369.45006    407.44959   -70.093062    39359.762 
   37700    303.42063   -1311.1866    375.96761    425.96209    224.56025    39359.762 
   37800    300.01017   -1331.3606    354.66779    369.18855    206.31061    39359.762 
   37900    287.37613    -1366.799    365.05668    287.46128    78.678776    39359.762 
   38000    291.13463    -1336.054    366.89518    336.90584    235.87706    39359.762 
   38100    290.57509   -1344.3751    368.31622    327.49556    120.72513    39359.762 
   38200    306.56867   -1318.0654    373.61646     430.8546   -223.33875    39359.762 
   38300    310.45487   -1342.4164    375.98212    426.30325   -252.04304    39359.762 
   38400    294.39074    -1312.375    360.48664    368.78363   -53.944802    39359.762 
   38500    304.21392   -1320.8554    370.07788    413.96235   -231.35563    39359.762 
   38600    292.24985   -1278.9888    374.77091    406.84969    186.97616    39359.762 
   38700    303.37941    -1318.603    377.30268    419.69583    195.80034    39359.762 
   38800    296.79435   -1329.7901    385.65127    387.31599    544.14005    39359.762 
   38900    290.93006    -1318.916    371.99463    358.22556    649.37427    39359.762 
   39000     308.3313   -1328.1465    376.97707    432.04156    923.91049    39359.762 
   39100    296.32853   -1312.4889    371.24314    388.11928    560.40594    39359.762 
   39200    300.19633   -1314.9917     385.8802    417.60498     880.6357    39359.762 
   39300    298.79374   -1282.0881    390.57807     448.9143    784.22324    39359.762 
   39400    285.33215   -1295.3176    367.58967    352.30612    173.19195    39359.762 
   39500    297.91796   -1283.4748    393.86144    446.88208    347.30818    39359.762 
   39600    300.52641   -1246.5189    384.39465      486.073    72.565241    39359.762 
   39700    294.07953   -1285.7404    374.96559    408.50096   -373.99657    39359.762 
   39800     300.2989   -1284.5682    367.26154    429.87001    18.230177    39359.762 
   39900    299.67661   -1293.7079     373.0572    423.73426   -420.40817    39359.762 
   40000    289.34718   -1303.4009    379.79522    374.44028    38.830851    39359.762 
   40100    298.04937   -1344.3383    358.50512    351.25184    206.85236    39359.762 
   40200    306.12276   -1253.7528    376.15476    495.70511    344.94829    39359.762 
   40300    296.29807   -1282.9678     374.2084    420.46909   -222.20069    39359.762 
   40400    295.94405   -1326.8668    372.82597    373.59946   -234.63889    39359.762 
   40500    291.32918   -1334.1587    389.37404    362.15277   -420.23534    39359.762 
   40600    311.23433   -1320.0676    387.22063     463.3873   -425.05987    39359.762 
   40700    303.28077   -1312.7465    372.07823    419.88536   -73.706187    39359.762 
   40800    294.84548   -1287.4218    385.81828     421.1084    64.568223    39359.762 
   40900    301.93505   -1301.0447    386.24074    439.71268   -252.38332    39359.762 
   41000    290.05671   -1274.2211    378.09729    405.10516    -117.4648    39359.762 
   41100    299.06325   -1268.6927    371.46817    444.40887    372.25349    39359.762 
   41200    300.17818   -1300.7095    369.72647    415.65199   -53.884832    39359.762 
   41300    291.77491   -1293.9549    379.40663    394.38875    177.05408    39359.762 
   41400    295.10502    -1267.912    390.55876    446.52303    -67.44114    39359.762 
   41500    303.02996   -1284.2944    407.73652    482.87062    69.563674    39359.762 
   41600    291.91517   -1287.9824    369.45331    391.03719   -328.21363    39359.762 
   41700     303.6822   -1266.5375    379.60868    475.42576   -76.837226    39359.762 
   41800    293.69869   -1248.8623     382.9052    451.61016   -66.093719    39359.762 
   41900    298.86848   -1325.3486    367.62254    383.03353    336.15167    39359.762 
   42000    310.53028   -1288.7543    380.98365    485.30518    79.679648    39359.762 
   42100    306.86581   -1251.3447    375.58208    500.87391    509.94311    39359.762 
   42200    297.52252   -1273.5516    403.61068    464.78055     133.3335    39359.762 
   42300    296.58058   -1334.8973    400.55587    396.15436    286.92788    39359.762 
   42400    307.49267   -1335.9101    390.61438    434.15304    386.73928    39359.762 
   42500    301.60305   -1334.6455    376.11646     394.4982    78.946262    39359.762 
   42600    301.91285   -1410.3714    387.23342    331.27898    325.93175    39359.762 
   42700    290.64707   -1355.7295    400.34242    348.49028   -43.703418    39359.762 
   42800    306.97973   -1294.2867    365.54978    448.41071   -35.636307    39359.762 
   42900    292.61122   -1380.5242    380.17875    312.34333   -113.58006    39359.762 
   43000     298.1987   -1377.9143    366.93004    326.77067   -70.822934    39359.762 
   43100    297.94136   -1332.2076    355.24757    359.64038   -294.51064    39359.762 
   43200    297.67985   -1339.7766    392.19521    387.84585   -14.308354    39359.762 
   43300    288.48037   -1354.7585    371.26908    310.66785   -52.732548    39359.762 
   43400    307.92214   -1320.9528    383.19028    443.61283      558.116    39359.762 
   43500    291.97111   -1316.1263    373.40832    367.09922   -295.30342    39359.762 
   43600     291.9038   -1320.2153    385.66812    374.96805   -590.64937    39359.762 
   43700    300.05426   -1342.5282     374.3443    377.89522   -16.812005    39359.762 
   43800    298.01775   -1295.6871      390.461    431.71703    45.312258    39359.762 
   43900    307.34295   -1258.6219    404.15973     524.3149    493.23748    39359.762 
   44000    307.71041   -1290.6934    380.33227    470.06445    71.539024    39359.762 
   44100    306.54859   -1322.1704    378.95473    431.99785    286.15676    39359.762 
   44200    307.44958   -1284.4941    399.17688    493.93826    100.08951    39359.762 
   44300     309.9206   -1311.2346    377.44507    456.55119    342.20874    39359.762 
   44400    309.46807   -1327.3179    378.39422    439.38696    788.69256    39359.762 
   44500    307.94386   -1288.9893    386.52846    479.01204    348.83964    39359.762 
   44600    294.70328   -1311.3625    391.98733    402.69882   -36.551532    39359.762 
   44700    303.85381    -1273.902    381.33646    470.55883    45.255704    39359.762 
   44800      301.316   -1303.8724    386.14445    434.01151    -61.02124    39359.762 
   44900    299.51537   -1281.4497    387.36484    449.57678   -58.528031    39359.762 
   45000    307.49444   -1295.5505    401.80315    485.70936   -387.42395    39359.762 
   45100    291.70009   -1297.4454    422.12949    433.28546   -72.249896    39359.762 
   45200    301.10735   -1311.6604    387.65901    426.80201   -373.08103    39359.762 
   45300    309.96256   -1298.7601    387.70856    479.47744   -425.19438    39359.762 
   45400    306.54977   -1264.7721    390.07494     500.5216   -528.35653    39359.762 
   45500    294.09345   -1270.9576    391.44694    439.82755   -763.43224    39359.762 
   45600    298.24849   -1323.0992    377.68167    392.56079   -535.29938    39359.762 
   45700    294.70356   -1289.8911    390.11836    422.30253    135.18437    39359.762 
   45800     292.1768   -1302.3476     394.4655    402.85785    261.51218    39359.762 
   45900    315.97888   -1342.9122    387.06311    461.66982    396.71565    39359.762 
   46000     297.1672   -1298.3587    398.32627    433.09504   -446.11649    39359.762 
   46100    293.54147   -1260.2618    391.11558    447.71576    150.57946    39359.762 
   46200    298.63714   -1241.3248    420.02233    518.41927    330.12161    39359.762 
   46300     291.0631   -1278.6809    407.28607    434.34886   -471.25783    39359.762 
   46400    300.19623   -1301.6195    375.13722    420.23378     -444.434    39359.762 
   46500    296.45378   -1266.1587    425.67115    489.43943    -565.8398    39359.762 
   46600    299.21364   -1251.4268    400.28622    491.16745    49.421333    39359.762 
   46700    306.56318   -1286.0857    389.48747    478.68068   -660.28882    39359.762 
   46800    304.40025   -1326.0005    406.03039    445.60568    383.70224    39359.762 
   46900    304.92515   -1296.2592    381.88891    453.56023   -303.43808    39359.762 
   47000    297.38769   -1306.0426     392.7234    420.79736   -547.80626    39359.762 
   47100    295.40669   -1296.6105    395.14425    423.76332   -133.66914    39359.762 
   47200    293.63485   -1316.2221    413.49327    414.55207    -381.3014    39359.762 
   47300    293.68729   -1305.8436     399.1157    410.78825    84.717736    39359.762 
   47400    303.60036   -1312.5497    397.67264    447.11036   -102.57793    39359.762 
   47500     300.6521   -1302.2767    390.37928    436.86376    242.46057    39359.762 
   47600    299.33841   -1350.9929    388.84812    380.72303    351.76029    39359.762 
   47700    300.58002   -1318.8128    396.17729     425.8023    387.32067    39359.762 
   47800     304.8483   -1330.1702    411.40903    448.82462    233.47486    39359.762 
   47900    306.58132   -1340.1431    394.18223     429.3994    82.650373    39359.762 
   48000    297.06657    -1314.317    399.27687     417.6359    84.610399    39359.762 
   48100    300.34891     -1305.26     409.2751    451.41609    128.28252    39359.762 
   48200    297.18526   -1304.9482    407.02948    435.28971     249.8854    39359.762 
   48300    308.28006   -1288.3468    421.90916    516.54346    77.415325    39359.762 
   48400    304.39288   -1299.3719    399.61103    465.78182     154.3642    39359.762 
   48500    300.75986   -1325.1146     381.1327    405.26265   -183.23731    39359.762 
   48600     293.4787   -1357.8871    402.41517     361.1085   -19.188667    39359.762 
   48700      303.207   -1336.5638    383.70547    407.36445    344.03997    39359.762 
   48800    298.44507   -1341.9199    388.36219    385.30242    69.497068    39359.762 
   48900    302.08564   -1284.5554    379.61305    450.24988   -113.98922    39359.762 
   49000    302.30561   -1318.3924    385.20197    422.98851    381.53472    39359.762 
   49100    303.38496    -1348.304    421.92664    434.64375    97.462901    39359.762 
   49200    291.39928   -1311.2763    403.83193    399.80755    42.185108    39359.762 
   49300    294.32159   -1323.7382     397.2723    393.89577    -22.99332    39359.762 
   49400    295.96766   -1319.7392    402.90207    410.90901    93.769431    39359.762 
   49500    304.28251   -1355.9029     397.1895    406.33422    248.55937    39359.762 
   49600    305.47537   -1351.8244    389.31662    407.89113    460.16574    39359.762 
   49700    294.46686   -1370.3842    400.49016     351.1194    78.460003    39359.762 
   49800    294.21467   -1357.7765    378.62696    340.73258   -5.4316039    39359.762 
   49900    295.49923   -1359.2988    373.29135    339.63724    38.118692    39359.762 
   50000    306.48732   -1372.1511    379.86126    382.64874   -201.78136    39359.762 
   50100     302.6596   -1365.8346    391.55621    383.48862   -542.26934    39359.762 
   50200    293.77508   -1346.2575    374.84089     346.4934    -329.8986    39359.762 
   50300    295.15425   -1336.1999     387.0668    374.96407    65.674402    39359.762 
   50400     304.1138   -1337.3225    404.07421     431.0424    -124.8594    39359.762 
   50500    300.08667   -1362.3584    374.08029    357.94641   -27.035896    39359.762 
   50600    312.29459   -1363.0873    377.23497    415.13839    176.57609    39359.762 
   50700    313.17684    -1347.309    394.16751    451.80715   -137.49156    39359.762 
   50800    303.42335   -1320.4542    389.30794    430.04702   -488.76417    39359.762 
   50900    310.51924   -1326.8251    384.30607    450.50725   -137.45913    39359.762 
   51000    290.08186   -1354.5367    399.91476    346.71986    152.70678    39359.762 
   51100    302.65886   -1295.4382    388.47331    450.79887    630.52979    39359.762 
   51200    296.02848   -1418.8453    393.43009    302.60383    281.49946    39359.762 
   51300    310.38359   -1365.0742    397.81516    425.15872    309.95857    39359.762 
   51400    291.31787   -1343.5388    379.38835    342.73619    248.96378    39359.762 
   51500    308.73978   -1341.3107    405.33189    449.06459    150.14669    39359.762 
   51600    308.27349   -1366.6827    414.35488    430.62378    141.44902    39359.762 
   51700    296.71506   -1329.6223    408.87292    410.34973   -337.93178    39359.762 
   51800     294.0391   -1311.5814    422.47292    429.98598   -94.436889    39359.762 
   51900    306.80152   -1348.1121    398.89816    427.13425    90.553381    39359.762 
   52000    307.91169   -1340.5467    399.14087    439.92271    355.69723    39359.762 
   52100    300.08067   -1403.7036       388.39    330.88398     271.7347    39359.762 
   52200    304.14814   -1361.4158    374.97315    378.00219    417.98248    39359.762 
   52300    297.03141   -1340.2565     388.0749    380.33673    722.81724    39359.762 
   52400    297.71218   -1349.1061    416.62497    403.09121    338.12937    39359.762 
   52500    299.81988   -1357.5309    391.64278    379.13956    490.14978    39359.762 
   52600    295.69586   -1403.7795    387.04402    309.79139   -51.057659    39359.762 
   52700    297.28528    -1376.279    411.88943    369.26764    95.935331    39359.762 
   52800    297.48916   -1395.1743    398.91068    338.30822    668.12976    39359.762 
   52900    309.19814   -1374.1635    407.15724    420.09343    669.31725    39359.762 
   53000    297.00522   -1390.4017     397.0086    339.00767    240.19649    39359.762 
   53100    299.54394   -1411.1093    398.47484    331.15532     80.95041    39359.762 
   53200    304.64404   -1335.4569     404.5012    435.71376   -401.90257    39359.762 
   53300     290.4335    -1330.461    410.61462    383.07287   -434.57083    39359.762 
   53400    293.63346   -1331.0758    394.06449    380.26339    33.533204    39359.762 
   53500     309.4562   -1365.1378    417.58657    440.70614    397.10066    39359.762 
   53600    296.36183   -1329.1468    414.08743    414.45512    240.64364    39359.762 
   53700     309.4972   -1293.6612    409.17964    503.95973    411.85479    39359.762 
   53800    292.54054   -1333.1247    415.04962    394.29666    278.75412    39359.762 
   53900    300.60443   -1322.9463    402.61466    428.21562    258.89115    39359.762 
   54000    304.92395   -1318.7771    401.90314    451.05119   -291.79557    39359.762 
   54100    297.10974   -1362.8031    396.09451    366.16107    30.666828    39359.762 
   54200    290.01315   -1386.9319    410.77543    324.87708    217.81536    39359.762 
   54300    301.39953   -1360.9574    412.38277    403.53962   -69.952205    39359.762 
   54400    296.35247   -1385.2383    385.35047    329.58464   -172.41831    39359.762 
   54500    301.32294   -1330.3218    391.48876    412.93756    326.99014    39359.762 
   54600    317.20024   -1385.8079    421.38562    458.57582    477.22301    39359.762 
   54700    298.59676   -1386.3392    400.79825    353.99972    690.59752    39359.762 
   54800    293.05311   -1380.3782    407.83075    342.12369    142.35405    39359.762 
   54900    289.59942   -1343.1389    400.18901    356.22756    75.263344    39359.762 
   55000     301.0244   -1356.9913    419.29967    412.73969    521.85257    39359.762 
   55100     301.2351   -1374.9035    410.55242    387.02548    690.28852    39359.762 
   55200    305.69925   -1318.7263    432.75116    485.42815    665.29807    39359.762 
   55300    295.57272   -1338.8702    416.45938    403.56366    -91.94538    39359.762 
   55400    298.25238   -1312.1652    406.95325    432.78371    198.94125    39359.762 
   55500    297.85816   -1309.5963    410.98304    437.61393    163.92503    39359.762 
   55600    303.13779   -1338.7381    392.33766    413.51177    359.01395    39359.762 
   55700    298.96457   -1337.5242    396.99221    400.65872   -274.30296    39359.762 
   55800    309.93714   -1326.0176    406.21069    470.60803    357.64107    39359.762 
   55900    294.30331   -1341.4103    407.62909    386.49848    155.30622    39359.762 
   56000    302.39572   -1343.2141    405.06862     418.4377    205.40408    39359.762 
   56100    298.93689   -1381.3045    426.75642     386.5184    261.06646    39359.762 
   56200    303.11804   -1336.8498    409.16876    432.14256    578.25247    39359.762 
   56300     309.1602   -1311.6424    424.32978    499.61687    802.04695    39359.762 
   56400    292.63101   -1306.6673    392.21336    398.32361     244.3497    39359.762 
   56500    305.21532   -1352.9052    402.63113    418.95818    47.432105    39359.762 
   56600    298.46751   -1358.7093    415.65576    395.90728   -108.89141    39359.762 
   56700    317.21515    -1369.976    405.67616    458.76515   -199.18415    39359.762 
   56800    306.98397    -1330.818    390.17086    436.51954     296.2811    39359.762 
   56900    292.53547    -1338.505    395.51213    369.35615    314.92423    39359.762 
   57000    298.66892    -1277.614    384.97906    447.22939    178.31196    39359.762 
   57100    302.34789   -1346.6315    429.80532    439.54243    50.260706    39359.762 
   57200    304.02481   -1322.2963    402.46104    444.05629    624.48888    39359.762 
   57300    300.65882   -1343.5226    390.91349    396.18224   -52.753603    39359.762 
   57400    298.31397   -1335.2596    401.64765    404.66008   -117.38656    39359.762 
   57500     291.9433   -1328.9698    408.23319    388.95578   -634.67703    39359.762 
   57600    299.15555    -1340.098    400.55761    402.50704   -548.49647    39359.762 
   57700    300.95678   -1330.7856    384.60879    403.95114   -497.78908    39359.762 
   57800    301.78662   -1347.1371    374.11198     380.8256   -193.95167    39359.762 
   57900      291.178   -1366.1933    403.13699    343.20292     71.28059    39359.762 
   58000    295.69023   -1324.8383    404.30656    405.96981    562.41278    39359.762 
   58100    304.79864   -1366.3854    399.13759    400.11524    991.79937    39359.762 
   58200    296.93108   -1367.5299    420.30866    384.84696   -26.662677    39359.762 
   58300    299.10037   -1374.5694    403.40542    370.63592    450.30499    39359.762 
   58400    314.76351   -1338.7754    426.08172    499.37287    544.47964    39359.762 
   58500    301.08521   -1312.1594     393.8514     432.3961    509.72115    39359.762 
   58600    297.75976   -1320.9801    419.64066    434.44634    371.53304    39359.762 
   58700    302.92021   -1360.8602    401.75947    399.83544     266.6598    39359.762 
   58800    302.44923   -1373.0066    418.46433    402.28103    3.9478633    39359.762 
   58900    314.03404   -1362.0989    422.01684    468.71206    664.20246    39359.762 
   59000    307.87887   -1354.1224    414.78488    441.84372     355.9031    39359.762 
   59100    300.70238   -1369.4261    410.32427    389.88486     533.6263    39359.762 
   59200    295.97182   -1336.7556    411.59975    402.60896    593.17652    39359.762 
   59300    303.86063    -1333.826    413.23048     442.5595    683.42863    39359.762 
   59400    295.24938   -1332.0612    396.92635    389.38906    424.26987    39359.762 
   59500     305.7968   -1288.2353    417.88208    501.48762    902.10295    39359.762 
   59600    306.05545   -1291.1258    449.28676    531.16216    441.97006    39359.762 
   59700    303.72574   -1302.5592    410.01288    470.00351     635.8721    39359.762 
   59800    295.18457   -1357.1302    403.84797     370.9509    383.00019    39359.762 
   59900    306.57575   -1327.0686    397.13555    445.40231   -74.087235    39359.762 
   60000    301.09556   -1337.6385    407.47887    420.59089    348.03111    39359.762 
   60100    311.57851     -1310.98    436.46456    523.26288    531.97169    39359.762 
   60200     306.3959   -1311.6814    414.41197    477.25907    215.69951    39359.762 
   60300    291.54817   -1321.4515    429.77685    416.24512    386.07301    39359.762 
   60400     293.9012   -1349.0181     415.0012    384.45893    643.96964    39359.762 
   60500    296.14162   -1349.7263    415.25008    394.05034    518.50447    39359.762 
   60600    300.01928   -1306.3186     423.8908    463.49448   -142.53159    39359.762 
   60700    304.62139    -1350.647    415.40221    431.32302    222.82282    39359.762 
   60800    305.78574   -1333.7502    428.17493    466.21593    87.057989    39359.762 
   60900    307.67761    -1287.826    418.65474    511.10708     323.2786    39359.762 
   61000    299.47695   -1316.8032    420.87938    447.56546    165.82133    39359.762 
   61100    311.00243   -1359.1268    417.02768    453.09483    405.35315    39359.762 
   61200    301.03671   -1320.4731    413.36143    443.37491    447.89484    39359.762 
   61300    301.01146   -1323.7451    391.29787    417.92602      395.315    39359.762 
   61400    298.69642   -1345.8869    392.51895    386.61981    152.42443    39359.762 
   61500    304.80929   -1358.5026    404.18492    413.09307   -68.277007    39359.762 
   61600    298.41122   -1360.3744    398.47012    376.80402    -286.9933    39359.762 
   61700    298.76302   -1378.7756     400.3992     361.9101    231.06133    39359.762 
   61800    297.52793   -1363.0584      427.502     399.1894   -362.19351    39359.762 
   61900    291.71131   -1412.9078    408.49135    304.23521   -640.04173    39359.762 
   62000    293.10805   -1375.5961    407.09803    346.41952   -405.19948    39359.762 
   62100    304.85383   -1361.2489    404.31428      410.676    -674.6586    39359.762 
   62200    293.77792   -1361.7528    387.16603    343.33603    -531.0953    39359.762 
   62300    302.56035   -1360.8919    410.56818    406.99802   -60.560456    39359.762 
   62400    308.58631   -1360.1313    418.83917    443.06284   -16.086302    39359.762 
   62500    298.96547   -1333.2881     422.1676    430.07418    79.452862    39359.762 
   62600    295.80061   -1380.0026    405.41715    352.41137   -72.973911    39359.762 
   62700    305.00233   -1371.5798    413.66821    410.36524    108.11002    39359.762 
   62800    300.43416   -1418.8989    408.15827    337.04277    443.17756    39359.762 
   62900    301.33931   -1411.9342    388.36932    328.27912  -0.73461249    39359.762 
   63000    295.50781    -1373.577    408.42538    360.53164    7.2709505    39359.762 
   63100     301.5085   -1395.2926    422.43319    379.74368   -278.30521    39359.762 
   63200    291.77999   -1343.6745    410.86761    376.15286   -6.9716514    39359.762 
   63300    304.56941   -1352.4492    438.75242    452.63785    157.71504    39359.762 
   63400    297.83907   -1343.6779     421.9231    414.38673    41.102797    39359.762 
   63500    307.55767   -1357.4985    428.23175    450.47365    29.519649    39359.762 
   63600    290.72728   -1290.0164    444.40926    458.63004   -320.61069    39359.762 
   63700    296.97064   -1286.5423    438.71903    484.42244    -68.66035    39359.762 
   63800     288.1314   -1294.1432    440.43677     438.8853   -291.31962    39359.762 
   63900    304.40611   -1283.0095    444.61331     527.2059    289.57952    39359.762 
   64000    306.38522   -1300.7452    442.15059    515.88597   -94.280385    39359.762 
   64100    294.05476   -1358.8333    414.77294     375.1043    -447.7633    39359.762 
   64200    297.56245   -1351.4333    434.64189    418.10918    -332.8755    39359.762 
   64300     299.9326   -1355.2886    447.43375    437.67854   -288.19824    39359.762 
   64400    296.62566   -1326.0721    443.56266    448.18859   -82.871745    39359.762 
   64500    309.74043    -1343.651    399.55213    445.43357   -199.91824    39359.762 
   64600    301.90371   -1345.4744    429.10905    438.01061   -47.956568    39359.762 
   64700    291.21269   -1414.9923    418.32228    309.74484   -486.77626    39359.762 
   64800    295.99518   -1364.4246    423.88769    387.33272   -228.58777    39359.762 
   64900    288.65418    -1408.215    422.07066    308.79271   -185.72277    39359.762 
   65000    290.64178   -1408.7123    433.81948    328.96081    394.67472    39359.762 
   65100     299.8796   -1377.0565    433.54806    401.78719    73.630582    39359.762 
   65200    298.29258   -1391.5899    448.97375    395.55996    40.730757    39359.762 
   65300    287.64838   -1436.6178    416.98593      270.793   -6.8198219    39359.762 
   65400    296.63677   -1382.0518    415.87791    364.57401   -192.41058    39359.762 
   65500    301.89299   -1352.8367    425.59006    427.08132   -35.991023    39359.762 
   65600    299.37473   -1397.6123    444.35691    389.77531   -433.83239    39359.762 
   65700    302.49367   -1429.6668    409.98647     337.3423   -296.58424    39359.762 
   65800    297.62885   -1421.8736    406.76647    320.09137    123.15081    39359.762 
   65900    299.60961   -1429.6597    421.08905    335.51378    61.758008    39359.762 
   66000     308.3035   -1377.4552     437.9438    443.57483     743.2871    39359.762 
   66100    296.93535   -1358.8466    422.35827      395.599     729.0215    39359.762 
   66200     312.2107   -1396.1192    416.70697    421.20213    352.82038    39359.762 
   66300    302.14807   -1382.6801    424.24743    397.03955     768.6121    39359.762 
   66400     303.2214   -1407.8235    428.57617    381.03996    555.14613    39359.762 
   66500    312.85537   -1373.4249    422.51734    452.59889    291.91107    39359.762 
   66600    293.75869   -1362.6495    427.10568    382.29263    254.32109    39359.762 
   66700    293.63439   -1379.8409    427.87693    365.31489    311.62085    39359.762 
   66800    298.79358   -1404.4999     425.1438    361.06747    46.394265    39359.762 
   66900    302.86802   -1421.6065    436.16637    373.26186    236.81171    39359.762 
   67000    303.02292   -1410.7054    427.37449    376.06604   -603.06811    39359.762 
   67100     300.2652   -1368.8252     445.5926    423.79287   -465.73138    39359.762 
   67200    299.26123   -1351.1115    421.52179    412.93184   -201.95779    39359.762 
   67300    302.49705   -1379.2519    428.93598    406.72183    17.113217    39359.762 
   67400    291.19929   -1393.4291    438.22804    351.15362   -905.63678    39359.762 
   67500    296.17617   -1393.0806    434.95049     370.5515   -163.00407    39359.762 
   67600    301.02414   -1395.0327      428.005     383.4024    25.786012    39359.762 
   67700    296.80143   -1447.8398    412.83208    296.47884    371.54916    39359.762 
   67800    298.42981   -1374.7985    459.07983    423.07303    482.27518    39359.762 
   67900     311.3207   -1415.2864     446.8252    428.16053    484.33912    39359.762 
   68000    297.44684   -1410.2047    436.60136    360.77862    489.57402    39359.762 
   68100    295.09497   -1404.8356    435.28626     354.2819    572.76582    39359.762 
   68200    288.33388   -1340.7119    449.57114    402.35934    559.93871    39359.762 
   68300     307.4977   -1385.9885     431.6724     425.1552    234.99241    39359.762 
   68400     313.7825    -1390.137     443.2199    460.74855   -252.56902    39359.762 
   68500     300.4233   -1399.9974    419.80589    367.54318   0.42455571    39359.762 
   68600    301.33687   -1427.2678    436.81425    361.37958    63.126605    39359.762 
   68700    310.72086    -1419.622    436.15481    410.46356    47.526725    39359.762 
   68800    292.07306   -1376.7513    450.27381    383.79705   -216.69477    39359.762 
   68900    310.19228   -1378.8931      430.639    443.30541    130.30369    39359.762 
   69000    289.55555   -1399.9531    442.64243    341.67006    296.62242    39359.762 
   69100    298.86991    -1403.183    433.37271    370.95574    104.19605    39359.762 
   69200    303.22331   -1428.1454    430.37063    362.52114    252.91861    39359.762 
   69300    304.40977   -1450.8212    434.30133     349.0986   -209.06396    39359.762 
   69400    305.11058   -1436.9434    407.29008    339.10914    -141.3146    39359.762 
   69500    296.46319   -1460.0761    420.20536    290.09849   -334.18165    39359.762 
   69600    302.09754   -1428.5282    413.37723    340.09461   -501.10996    39359.762 
   69700    289.66445   -1372.1752    431.31138    358.60542   -12.002866    39359.762 
   69800    298.75134   -1432.7756    411.68501    319.14354   -310.26023    39359.762 
   69900    298.72882   -1447.3036    417.33587    310.16534    122.79353    39359.762 
   70000    300.11013   -1396.4108    429.02199    378.94098    344.84084    39359.762 
   70100    298.79538   -1396.4748    423.76792    367.72479   -117.89336    39359.762 
   70200    300.47279    -1389.751    416.55574    374.76153    6.6770022    39359.762 
   70300    297.46628   -1420.4064    433.47337    347.53611   -395.37263    39359.762 
   70400    310.12462   -1415.7974    453.84512    429.30364   -204.13142    39359.762 
   70500    296.60746   -1370.6331    414.93399    374.91732   -270.77862    39359.762 
   70600    302.53756   -1380.8696    433.90595    410.25589   -437.03837    39359.762 
   70700    292.78387   -1398.6308    439.60527    354.43778   -762.52984    39359.762 
   70800    312.02592   -1374.9025    427.66626    452.54922   -54.627375    39359.762 
   70900    301.37755   -1408.0705    411.19061    355.13573   -306.37053    39359.762 
   71000     296.2473   -1415.5778    435.79327    349.21609   -154.38213    39359.762 
   71100    311.80943   -1408.3318    425.96162    416.44404   -87.266261    39359.762 
   71200    292.62074   -1448.3894    416.00355    280.34569   -433.98535    39359.762 
   71300    330.57953   -1435.9035    388.76828    435.88393    124.27703    39359.762 
   71400    298.80735   -1385.9884    425.86879     380.3658   -301.85334    39359.762 
   71500    301.36725   -1423.1318    444.47543      373.313   -386.82066    39359.762 
   71600    289.33283   -1410.8995    430.04175    317.12375    -454.3152    39359.762 
   71700    301.07429   -1406.6418    455.65496    399.66834   -170.04737    39359.762 
   71800    296.38287   -1382.4824    447.28889    394.41539    102.75069    39359.762 
   71900    298.01423   -1402.9427    418.29224    352.27686   -353.84453    39359.762 
   72000    297.07223   -1429.6372    421.32988    324.39408    -8.298878    39359.762 
   72100    289.80163   -1397.5913    446.99483    349.48816   -3.7379654    39359.762 
   72200    303.88168   -1412.2218    429.99662    381.02425    -45.44497    39359.762 
   72300    303.31141   -1433.1704    401.70664    329.22734   -37.145907    39359.762 
   72400      295.679    -1410.566    420.35704    336.24227   -176.86102    39359.762 
   72500    296.98785   -1393.5046    418.27781    357.09611    270.74428    39359.762 
   72600    296.46563   -1377.5507    448.61177    401.04125    200.20128    39359.762 
   72700    297.06262   -1374.6339    439.01474    397.03914    502.21221    39359.762 
   72800    307.37235   -1403.2851    433.57824     409.2021    623.06252    39359.762 
   72900    299.72396     -1422.94    425.93047    347.58784    779.21745    39359.762 
   73000    307.13259   -1394.3968     432.5462     415.9828    529.00341    39359.762 
   73100    294.52531   -1414.1134    456.39674    363.55893    367.43243    39359.762 
   73200    310.45844    -1372.865    416.77085    436.65945    465.83029    39359.762 
   73300    296.22305   -1400.8001    434.32353    362.41534    -312.1823    39359.762 
   73400     296.9015   -1382.1349    439.30765     389.1082    88.243877    39359.762 
   73500    297.18747   -1383.2478    416.65139    366.62196    234.96097    39359.762 
   73600     290.6156   -1375.9872    428.27144    356.02047    127.20298    39359.762 
   73700    303.04524   -1383.9991    435.89089    411.38889    150.47144    39359.762 
   73800    300.84203   -1396.7382    456.11511    408.99013    73.031075    39359.762 
   73900    297.76205   -1431.2593    429.75332    334.28998     363.4853    39359.762 
   74000    299.11826   -1429.4619    433.12244     345.5407     291.0268    39359.762 
   74100    293.79301   -1402.1222    443.29471    359.16292    127.54656    39359.762 
   74200    305.27846     -1392.75    422.91491    399.68048   -339.58164    39359.762 
   74300    311.89567   -1360.8563    428.10235    466.44713   -193.45592    39359.762 
   74400    312.09357   -1389.8244    422.66466    432.92915   -306.11267    39359.762 
   74500    303.86367    -1407.611    433.05584    388.61344      239.932    39359.762 
   74600    294.58223   -1410.1989    421.94826    333.28036   -467.04361    39359.762 
   74700    301.06711   -1412.7116    429.68038    367.59165   -406.16885    39359.762 
   74800    293.06352    -1416.277    418.27454    316.71534    -139.3309    39359.762 
   74900    293.58791   -1394.6942    447.68099    370.05713   -108.46543    39359.762 
   75000    304.08414   -1384.2261    423.35098    403.28255     -101.308    39359.762 
   75100    301.69842   -1396.3878     406.3838    363.45103   -168.78117    39359.762 
   75200    297.87381   -1447.5105    446.53893    335.32584   -328.01304    39359.762 
   75300    301.88694   -1407.6941    440.52594    387.13267    203.48583    39359.762 
   75400    297.85945   -1404.6059    418.14905    349.77611    68.869514    39359.762 
   75500    299.89577   -1382.6831    435.99623    398.68125   -255.89719    39359.762 
   75600    304.57103   -1389.5354      452.917    429.72356    158.33466    39359.762 
   75700    305.75531   -1378.6257    435.79112    428.82012   -1.3663193    39359.762 
   75800    312.05917   -1392.1396    429.09622    436.89126   -398.02439    39359.762 
   75900    300.70474   -1367.5651    415.43826    396.87042   -93.316827    39359.762 
   76000     308.2325   -1319.1921    453.88367    517.45923   -75.898108    39359.762 
   76100    298.83948   -1398.2584    430.58455    372.95562   -330.10763    39359.762 
   76200      304.883   -1392.8943    446.09126    420.93837   -265.26891    39359.762 
   76300     306.5373   -1409.4257    435.88399    401.62109   -134.92122    39359.762 
   76400    300.00928   -1409.4055    445.27067    381.74252    108.78071    39359.762 
   76500     307.8987   -1443.6621    423.05431    360.66249     37.33979    39359.762 
   76600    296.15292   -1448.2192    419.60891    299.96698    317.06411    39359.762 
   76700    295.05447   -1446.6178     422.4151     299.4468   -329.40699    39359.762 
   76800    293.84589   -1383.5991    432.13693    366.76549    263.70469    39359.762 
   76900    301.38652   -1388.2668    454.15593    417.94502    475.54726    39359.762 
   77000    296.76142   -1395.2715     456.8456    392.88118    10.863075    39359.762 
   77100    296.32595   -1396.1107    455.69092    388.93376    98.251366    39359.762 
   77200    297.63606    -1410.932    405.25436    329.55317   -533.34416    39359.762 
   77300    293.86023   -1401.9312     461.1021    377.46288   -185.90429    39359.762 
   77400    289.98231   -1407.2978    432.66359    326.26102    456.11826    39359.762 
   77500    298.77595   -1414.9736    436.10838    361.47927    117.69137    39359.762 
   77600    297.47068   -1418.0052    450.44084    366.92456    148.97478    39359.762 
   77700    288.70537   -1396.4885     428.2294     326.9076    395.16334    39359.762 
   77800    299.14728   -1346.8607    430.91843    426.06803    446.12251    39359.762 
   77900    307.13417   -1382.4388    446.30637    441.70803   -91.418366    39359.762 
   78000    302.81282    -1362.226    428.17595    424.40434   -204.91465    39359.762 
   78100    306.41681   -1368.6738    438.30262     444.2511    228.62508    39359.762 
   78200    299.96958   -1361.7301    444.12697    428.09618   -595.69586    39359.762 
   78300    300.58903   -1398.4638    428.64494    378.65933   -691.04194    39359.762 
   78400    293.51687   -1404.2823    409.42206    321.89135   -723.60333    39359.762 
   78500    301.14414   -1341.0427    433.04165    442.96741    204.72474    39359.762 
   78600    295.43052    -1381.753    439.25853    382.84202   -143.07135    39359.762 
   78700    305.27894   -1445.8979    450.52461    374.14437    128.35133    39359.762 
   78800    309.43248   -1428.3145    444.01109    403.84757    846.40521    39359.762 
   78900    298.62892   -1402.9725    462.93422    399.64666    618.10172    39359.762 
   79000    295.26493   -1386.8081    418.20938    355.99491    453.79541    39359.762 
   79100    290.83827   -1404.0117    431.73074    332.45419    922.67982    39359.762 
   79200    295.88755   -1399.9875    451.64696    379.04625    350.62348    39359.762 
   79300    307.15635   -1410.7697    436.21028    403.38058    655.16635    39359.762 
   79400    295.69824   -1426.5064    450.53843    350.56957    444.08021    39359.762 
   79500    305.03449    -1431.702    445.43711    382.15617    816.43735    39359.762 
   79600    305.59564   -1403.7073    435.70344    402.93457    647.55427    39359.762 
   79700    307.67325   -1429.3509    439.67419    390.58217    590.27774    39359.762 
   79800    306.02051   -1445.3937    442.29979    369.75056   -178.79121    39359.762 
   79900    304.85494   -1425.6117    428.87124     370.8751    -164.7842    39359.762 
   80000    292.13845   -1466.0306    439.11415    283.65143   -901.71778    39359.762 
   80100    304.06971   -1494.4551    433.96005    303.59789   -260.71818    39359.762 
   80200    299.13918     -1484.28    438.06211    295.75609   -359.39261    39359.762 
   80300    296.59766   -1423.3857    439.13668     346.3234    141.65131    39359.762 
   80400    304.97835   -1416.8763    436.91661    388.20954    426.70624    39359.762 
   80500    299.04527   -1409.7987    472.80249    404.55646    565.09857    39359.762 
   80600    294.81448   -1432.6345    482.23578    372.17415    538.80001    39359.762 
   80700    293.81063   -1438.2913    446.98855    326.76673    286.22811    39359.762 
   80800    308.48845   -1457.0941    432.04275    358.86463    242.40793    39359.762 
   80900    292.48142   -1439.8395    454.27719    326.54419    467.14735    39359.762 
   81000    308.33446   -1454.0421    438.10329    367.28627     699.7868    39359.762 
   81100    294.43927   -1423.9872    433.88625    330.78873    128.30702    39359.762 
   81200    299.37084   -1453.1629    441.66852    331.51891    184.74115    39359.762 
   81300    300.52229   -1421.5545    425.85071    352.47501    21.484223    39359.762 
   81400     306.3336   -1404.3704    453.11584    422.99443   -426.63269    39359.762 
   81500    308.55343   -1426.4158    446.05456    403.84618    -251.8835    39359.762 
   81600    302.45639   -1442.0487    440.65863    355.46532   -182.60068    39359.762 
   81700    302.85895   -1451.7335     440.5702    347.49803   -9.9985541    39359.762 
   81800    292.99951   -1458.9338    427.69639    283.19333    38.579669    39359.762 
   81900    294.55423   -1443.9831    416.12615     293.5484   -205.43981    39359.762 
   82000      294.648   -1434.8011     438.2033    325.22819    50.359636    39359.762 
   82100    298.83012   -1420.0552    457.66076    378.19305    22.414014    39359.762 
   82200    300.39887    -1406.208     446.5883    388.00544    83.195991    39359.762 
   82300    302.40505   -1436.1305     441.8368    362.33141    -140.1552    39359.762 
   82400    307.71181   -1466.9945    431.10134    344.53868    265.91961    39359.762 
   82500    293.30245   -1439.5031    456.35193    332.63851    60.773947    39359.762 
   82600    305.65164   -1413.5046    435.72245    393.40755     212.0267    39359.762 
   82700    308.37837   -1431.2887    434.76481    386.89827    194.37841    39359.762 
   82800     292.4572   -1400.6406    442.79553    354.15275    430.67755    39359.762 
   82900    296.94572   -1418.7544    438.26831    351.64784    78.965918    39359.762 
   83000    304.06725    -1449.721    445.11463    359.47555   -163.68195    39359.762 
   83100    292.02151   -1456.4618    469.69366     323.2751    434.42339    39359.762 
   83200    296.00663   -1404.1771    493.86542    417.60935     9.654022    39359.762 
   83300    291.20498   -1430.3766    460.98761    336.99124   -254.16724    39359.762 
   83400    321.27085    -1407.361    430.65134    464.54963    200.06264    39359.762 
   83500    313.01266   -1363.1945    483.37146      524.389    91.701738    39359.762 
   83600    305.62073   -1427.5514    455.59902    399.09866   -517.88861    39359.762 
   83700    306.96814   -1414.2536    478.44398      441.286    252.53092    39359.762 
   83800    294.78545   -1409.4852     430.7183    343.67577   -441.54655    39359.762 
   83900    297.64948    -1445.466    454.05988    343.88485    -375.7448    39359.762 
   84000    304.19111   -1428.4272    438.03342    374.24375   -372.08493    39359.762 
   84100    295.69822   -1453.5663    411.87272    284.84391   -281.92782    39359.762 
   84200    300.86384   -1467.0072    463.96043    346.66424   -216.65138    39359.762 
   84300    301.14055   -1467.7614    452.68827    335.87926   -62.706078    39359.762 
   84400    300.77243   -1479.6509    423.25345    292.90353    172.67181    39359.762 
   84500    302.68834   -1475.4561    445.50263    327.94251    357.53865    39359.762 
   84600     293.8357   -1434.5612    453.57879    337.19956    271.99569    39359.762 
   84700    303.74753   -1442.1045    447.94793    368.49105    6.3506699    39359.762 
   84800    313.23688   -1464.0103    451.53422     392.7419    367.99754    39359.762 
   84900    300.67391   -1468.5242    427.95299    308.28773    204.90996    39359.762 
   85000    307.62583   -1456.5639    455.63687     379.1191    113.36861    39359.762 
   85100    286.34928   -1462.8875    441.27368     262.9832    34.691446    39359.762 
   85200    293.59781   -1476.9111    436.01457    276.21821    202.47877    39359.762 
   85300    301.76199   -1461.4153    455.93949    348.26443    244.76222    39359.762 
   85400    298.03345    -1484.809    437.18319    289.38778    178.90364    39359.762 
   85500    286.37024   -1441.8555    457.23317    300.06867    295.37611    39359.762 
   85600    301.42606   -1463.0476    429.62586    318.81151    141.54556    39359.762 
   85700    297.58828     -1427.59    463.33539    370.76186    245.51665    39359.762 
   85800    297.25306   -1465.6612    433.44678    301.29826   -277.77369    39359.762 
   85900    307.60132   -1461.0956    443.08654    361.92706    370.22264    39359.762 
   86000    303.26259   -1453.0339    438.43066    345.86885    312.84633    39359.762 
   86100    300.59923   -1379.7854    466.46842    435.20698    212.37762    39359.762 
   86200    294.01717   -1440.2761    440.98468     319.7046   -377.53563    39359.762 
   86300    295.29033   -1416.9271    445.42346    353.20401   -121.59065    39359.762 
   86400    302.11895   -1484.8804    442.93065    313.39188   -292.50146    39359.762 
   86500    287.89114   -1493.8398    450.30334    247.97742   -546.18661    39359.762 
   86600    307.80781   -1494.1708    443.90106    330.59278   -506.39412    39359.762 
   86700    297.07509    -1486.001    437.67462    284.38787    21.707637    39359.762 
   86800    294.63654   -1490.2689    441.95418    273.45986   -33.626532    39359.762 
   86900    306.96244   -1505.9497    449.88629    321.00667    54.836103    39359.762 
   87000    297.37731    -1496.923    429.14015    266.28716   -20.922135    39359.762 
   87100    305.33255    -1477.548    433.21486    325.42511   -17.224811    39359.762 
   87200    291.32785   -1468.9474    479.33817    317.32223    30.071743    39359.762 
   87300    294.22528   -1431.7146    431.00944    319.22452   -147.52079    39359.762 
   87400    317.87937   -1465.7798    479.46099    439.72594   -223.72081    39359.762 
   87500    304.57902   -1502.9355    444.52087    307.96316   -56.508297    39359.762 
   87600    291.57513   -1510.8434    444.59412    241.79146    154.24943    39359.762 
   87700     293.0436   -1497.1932     432.8135    250.24878   -398.41608    39359.762 
   87800    292.19116   -1486.9137    447.01252    270.90315   -203.14962    39359.762 
   87900    304.63774   -1497.4333    462.90621    332.11408   -141.70357    39359.762 
   88000    303.16985    -1522.167    477.04789    314.93697    704.57694    39359.762 
   88100    290.17704   -1461.7089    463.28589    303.34576    499.86655    39359.762 
   88200     300.5082   -1456.9991    472.11542    363.23191    759.95485    39359.762 
   88300    308.17659   -1461.2283    449.54377    370.83237    617.10551    39359.762 
   88400    289.78372   -1437.8159    445.21987    307.40824     64.78623    39359.762 
   88500    292.27218   -1446.7332    478.26518    342.69978    896.60662    39359.762 
   88600    296.25315   -1424.5234    434.77086    339.27439    741.22387    39359.762 
   88700    288.89585    -1454.854    454.13985    295.30708    525.12905    39359.762 
   88800    304.73039   -1441.2308     450.4012    376.22718    498.99813    39359.762 
   88900    300.23855   -1437.7682    455.70179    364.83952    3.3688359    39359.762 
   89000    299.85297   -1454.3996    458.82143    349.59794    331.27196    39359.762 
   89100    284.96208    -1452.484    434.90353    260.79337    353.40284    39359.762 
   89200    302.74758   -1432.9644    465.48257    390.67985    110.90595    39359.762 
   89300    304.30103   -1472.9999      462.422    354.55277    886.69494    39359.762 
[...]
  985000    298.98012   -1539.0755    455.01568    257.20058    159.63952    39359.762 
  985100    294.27743   -1524.5194    472.97712    268.62128   -43.232047    39359.762 
  985200    305.10527   -1532.4265    464.65364    300.96574   -269.86286    39359.762 
  985300    300.94578   -1548.0559    497.00428    299.02698   -33.071912    39359.762 
  985400    295.76158   -1508.6584    483.86479    302.02809    110.47252    39359.762 
  985500    299.32681   -1520.6586    472.99004    295.14719    414.47046    39359.762 
  985600    301.16853   -1537.5958    496.20234    309.68445    235.73152    39359.762 
  985700    299.83503   -1495.2372    461.18861    311.04702    195.96793    39359.762 
  985800    298.82001   -1524.1938    453.18056    269.52888   -6.6603766    39359.762 
  985900    297.56297   -1543.8962    516.38611    307.39285   -375.21676    39359.762 
  986000    303.09861   -1513.2716    484.23534    330.70025   -66.556428    39359.762 
  986100     287.6882   -1504.4122    516.84053    303.03184   -544.40632    39359.762 
  986200    300.33578   -1470.5064    485.09376     361.9295   -97.356824    39359.762 
  986300    297.90971   -1498.4205     462.0959    300.13381   -308.37786    39359.762 
  986400    304.00351   -1509.4528    508.35802    362.70121    151.27407    39359.762 
  986500    310.29143   -1539.0558    515.65255    368.60106    463.94287    39359.762 
  986600    307.81364   -1517.0473    498.04527     361.8866    449.78108    39359.762 
  986700    295.13889    -1509.003    461.11884    276.14411    176.01867    39359.762 
  986800    303.75537    -1514.543    503.51537    351.65518    567.39692    39359.762 
  986900    291.30376   -1526.6533    467.31392      247.484    134.16336    39359.762 
  987000    304.54507   -1512.2857    481.49706    335.43687   -361.63621    39359.762 
  987100    298.97178   -1504.6302    462.59997    299.19272   -366.73843    39359.762 
  987200    298.53011   -1473.4439    470.29072     336.0885    -461.7567    39359.762 
  987300    294.63311   -1492.0135    493.20135    322.94703    200.86534    39359.762 
  987400    304.06416   -1479.2171    484.76984    369.62079    218.04694    39359.762 
  987500    298.29545    -1471.236    486.45785     353.4108    88.769743    39359.762 
  987600    313.66977   -1457.9774     509.0133     458.1958    -596.4556    39359.762 
  987700    303.07333   -1493.2035    494.04991    360.46949   -72.236423    39359.762 
  987800    293.24061   -1505.3606    481.01762    291.16938    84.931992    39359.762 
  987900    302.45127   -1488.1378    500.94393    369.63856   -274.98483    39359.762 
  988000    299.59773   -1444.1308    466.32434    366.22465    47.128895    39359.762 
  988100    306.11878   -1453.3355    492.73795     412.6878    665.56423    39359.762 
  988200    304.46976   -1507.3732    487.06266    345.57705    581.92515    39359.762 
  988300    307.36678   -1499.9974    501.29397    380.18059   -237.54962    39359.762 
  988400    306.96203   -1501.3962    482.35168    358.02368    277.60181    39359.762 
  988500    321.35508   -1494.2373    498.74461    446.14448    664.05814    39359.762 
  988600    305.34535   -1481.8334    500.79309    388.77529   -497.43565    39359.762 
  988700    295.91015   -1499.9242     478.7986    306.36253   -295.15795    39359.762 
  988800    292.84507   -1507.5025     511.7159    317.95123   -564.87088    39359.762 
  988900    312.16852   -1495.8017    476.59213    381.21564   -516.49904    39359.762 
  989000    307.54558   -1478.5169    479.42979    380.59903   -446.71102    39359.762 
  989100     303.2085   -1491.0455    478.77532    347.95928   -551.25446    39359.762 
  989200    297.35855   -1492.9099    477.38951    318.46553    -337.4443    39359.762 
  989300    293.24449   -1493.3717    503.74267    325.90065    19.240135    39359.762 
  989400    297.02754   -1452.1334    482.43345    362.80097    -46.04722    39359.762 
  989500     294.8502   -1471.0805     500.5729    352.22555   -723.63964    39359.762 
  989600    296.51689   -1487.8194    478.22292    320.61358    50.491904    39359.762 
  989700    304.85769   -1483.5763    517.81071    401.86239   -652.52804    39359.762 
  989800    302.96386   -1506.9208    514.40376    366.61491   -12.807189    39359.762 
  989900    292.08307   -1531.8568    459.83427    238.29689    272.60809    39359.762 
  990000    296.58215   -1504.2594    524.93301     351.1765    181.15786    39359.762 
  990100    295.05799    -1505.197    454.07153    272.53977    359.10764    39359.762 
  990200     303.3696   -1524.7116    474.35761    310.59822    279.31893    39359.762 
  990300    301.06512   -1524.4143    485.81353    312.01318    17.092825    39359.762 
  990400     305.3212   -1488.3868    481.69749    363.01794   -142.57721    39359.762 
  990500    295.19582    -1476.928    470.23598    317.59162   -476.47641    39359.762 
  990600    303.79056   -1519.0195    505.32446    349.14561   -610.75876    39359.762 
  990700     297.3872   -1539.6205    468.67825    263.17217    -547.5571    39359.762 
  990800    311.94681   -1495.4722     488.6875    392.64582    270.60112    39359.762 
  990900    292.17661   -1530.7254    467.46345    247.47711    217.15266    39359.762 
  991000    296.49422   -1558.8824    458.37776    229.60382    294.93153    39359.762 
  991100    298.54776    -1506.279    503.32714    336.36889    234.22139    39359.762 
  991200    305.55509   -1499.0742    510.20774    381.89012     722.1058    39359.762 
  991300    300.74746    -1528.223    493.10995    314.07584   -202.43947    39359.762 
  991400    295.30944   -1522.3244    497.21154    299.68053   -318.69216    39359.762 
  991500    299.45275   -1529.1809    471.74547    285.94528    163.96761    39359.762 
  991600     295.4038   -1510.7154    500.47142    314.97265    9.4841408    39359.762 
  991700    300.12946   -1536.8454    470.29938     279.8705    -59.33242    39359.762 
  991800    291.52566    -1505.725    471.60857    273.70244   -486.69873    39359.762 
  991900    300.89897   -1494.6405    494.12324    349.35138    -6.268739    39359.762 
  992000    297.94455   -1492.2046    511.93228    356.34237   -132.34361    39359.762 
  992100    305.37262   -1515.5529    497.81358    352.19865    257.73239    39359.762 
  992200    303.16683   -1481.5067    490.14427    368.68007      115.536    39359.762 
  992300      291.242   -1496.2214    481.19334    291.51826   -536.34174    39359.762 
  992400    305.49607   -1500.3914    472.22017    342.32056   -26.344644    39359.762 
  992500    309.48248   -1533.4667    471.58225    326.49081    27.957302    39359.762 
  992600    301.95145   -1541.3439    476.45245    289.69869    433.82872    39359.762 
  992700    287.52776   -1511.0903    490.57172    269.36518    869.39557    39359.762 
  992800    298.95756   -1469.9935    473.41059    344.57634    542.31801    39359.762 
  992900    306.00633   -1488.6546    488.51683    372.64305   -17.673978    39359.762 
  993000    306.60088   -1480.1289    476.18473    371.50388   -233.72722    39359.762 
  993100    292.37838   -1480.2734    493.52121    324.89202      77.6786    39359.762 
  993200    299.20658   -1471.6775    487.60226    358.20113    404.55023    39359.762 
  993300    300.52158   -1453.1776    504.39881    399.39682    217.62075    39359.762 
  993400    308.39002   -1477.4737     503.6066    409.60728    47.921368    39359.762 
  993500    297.38094   -1502.6017    468.52489    300.00953   -284.03335    39359.762 
  993600    303.80423   -1522.4639    502.89848    343.33651    -259.4611    39359.762 
  993700    298.49897   -1521.0709    488.44794    306.47901   -622.27696    39359.762 
  993800    302.43309   -1515.7971    482.98914    323.94284   -523.18179    39359.762 
  993900    304.75169   -1515.0974    476.08756    328.14253    128.17583    39359.762 
  994000    310.29504   -1586.3809    477.56523    283.20485   -438.72528    39359.762 
  994100    282.89392   -1525.0969    452.25586    196.25476    133.99707    39359.762 
  994200    302.82658   -1557.0295    494.19949    295.68612    695.84503    39359.762 
  994300    286.44246   -1562.9189    485.06188    207.15795    210.10685    39359.762 
  994400    292.12478   -1591.5777    473.74069    192.66957   -32.269489    39359.762 
  994500    296.96864   -1550.2594    475.43772    257.41505    19.142543    39359.762 
  994600    296.31898   -1515.1015    442.95917    257.17992    152.38195    39359.762 
  994700    303.97566   -1524.7692    482.16845    321.07023   -240.46188    39359.762 
  994800     295.9114   -1534.3917     463.2913    256.39342   -70.838834    39359.762 
  994900    296.07856   -1515.9418    482.98276    295.28468    103.75474    39359.762 
  995000    305.57228   -1507.6099    505.37165    368.59543   -261.92829    39359.762 
  995100    304.90722   -1508.1793    493.27428    352.94507    66.736253    39359.762 
  995200    303.31155   -1498.1171    478.73943    341.31405   -586.96262    39359.762 
  995300    297.53316   -1508.9547     485.8389     311.6534   -175.88454    39359.762 
  995400    303.22629   -1522.8478    508.94168    346.40315   -101.59401    39359.762 
  995500    294.97647   -1528.6548    484.60065    279.24539    415.23703    39359.762 
  995600    306.82684   -1556.0319    465.95669    286.38661    569.31769    39359.762 
  995700    288.11092   -1495.9265    503.37753    299.95091    543.67574    39359.762 
  995800    298.55775   -1481.3372    489.91577    347.94421    239.42164    39359.762 
  995900    300.00344   -1498.4212    475.91363    323.34358   -141.54231    39359.762 
  996000    295.45998   -1533.3057    464.95812    257.12114   -47.630296    39359.762 
  996100    300.04726   -1494.6476    468.97168     320.3719   -465.45317    39359.762 
  996200    302.61732   -1489.5866    473.15547     341.1462    313.15381    39359.762 
  996300    294.78279   -1536.6615    487.28389    273.05311    110.65332    39359.762 
  996400    293.76814   -1526.4199    466.80888    258.26783   -86.874581    39359.762 
  996500    294.86364   -1542.7643    479.30571     259.3348   -161.46001    39359.762 
  996600    298.53801   -1532.2555    449.53521    256.55679    429.71434    39359.762 
  996700    302.43615    -1513.076    488.04963    331.73825    345.15761    39359.762 
  996800    299.61081   -1540.3033    498.10436    301.89086    519.35934    39359.762 
  996900    287.24174   -1534.9263    476.81969    230.49406    158.09464    39359.762 
  997000    296.28795   -1543.6907    465.19824    250.69062    331.32069    39359.762 
  997100    300.13245   -1500.9292     500.8051    346.30582     682.5819    39359.762 
  997200    291.50411   -1480.7794    480.94721    307.89003    83.875534    39359.762 
  997300    305.34232   -1508.5532    482.37947    343.62824    283.70274    39359.762 
  997400    292.61327   -1472.7534    487.65258    327.59721   -87.104333    39359.762 
  997500    303.61123   -1491.9016    487.57106    357.70559   -245.27175    39359.762 
  997600     300.3865   -1546.5714    472.59126    273.58949   -941.47654    39359.762 
  997700    299.16088   -1508.8863     481.1008    314.28582   -857.71204    39359.762 
  997800     301.4566   -1535.0569    451.41358     268.7269   -568.70888    39359.762 
  997900    295.35304   -1477.4459    450.95029    298.49325   -219.35907    39359.762 
  998000    299.99946   -1511.1262    473.16916     307.8763   -208.78155    39359.762 
  998100    313.03438   -1486.7845    472.88186    390.40688     82.05859    39359.762 
  998200    297.81742   -1490.8592    475.74908    320.93427   -413.77312    39359.762 
  998300    308.02841   -1472.1633    464.84933    374.53822     39.56302    39359.762 
  998400    299.63675   -1476.3493    474.70887    342.56576   -334.69212    39359.762 
  998500    304.09529   -1487.0893     488.0562    365.17459   -438.28753    39359.762 
  998600    294.80703   -1504.9483    448.71016     266.3013   -601.13126    39359.762 
  998700    305.58401   -1436.5593     489.8676    424.19457   -606.68609    39359.762 
  998800    296.71104   -1456.2667    448.20969    323.02406   -618.68563    39359.762 
  998900    309.34909   -1455.6304    451.80877    383.95527   -184.24437    39359.762 
  999000    302.84246   -1469.1863    467.07294    356.47404   -243.47309    39359.762 
  999100     307.1411   -1482.6753    472.93925     368.1355    533.36685    39359.762 
  999200     294.3355   -1494.6495    471.08871    296.86336     77.18105    39359.762 
  999300    299.83918    -1479.173    472.69828    338.63953    221.69642    39359.762 
  999400    290.13231   -1443.9515    473.63594    331.25259   -739.34949    39359.762 
  999500    303.04466   -1472.3106    466.58961    353.77347   -363.47094    39359.762 
  999600     293.8984    -1429.265    478.31661    367.51485   -676.18153    39359.762 
  999700     300.3563   -1438.7742    477.39861     386.0586   -197.84378    39359.762 
  999800    314.03309   -1437.6214    478.21508    449.38357    162.53861    39359.762 
  999900    296.30934   -1469.0954    481.90736      342.091    20.382296    39359.762 
 1000000    303.06175   -1481.0812    477.21089    355.70075    -83.07541    39359.762 
 1000100    308.77528   -1454.2911    485.20908    416.12073    278.67318    39359.762 
 1000200    298.29191   -1474.1086    475.76094    339.82535    49.955829    39359.762 
 1000300    299.37286   -1475.6761    455.80545    323.15167    349.61312    39359.762 
 1000400    302.92839   -1511.5809    472.05655    319.44846     881.1533    39359.762 
 1000500    291.25316   -1515.4187    466.20269    257.38039   -95.958099    39359.762 
 1000600    300.28206   -1490.7664    462.97384    319.30853    52.870292    39359.762 
 1000700     301.1187   -1485.6422    482.27419    347.48638   -78.458105    39359.762 
 1000800    292.91837    -1484.676     464.1125    293.50319   -87.520463    39359.762 
 1000900    304.49676   -1503.5222    464.28151    326.76802    209.34053    39359.762 
 1001000    301.94607    -1508.395    480.02083    326.19182   -62.064554    39359.762 
 1001100     296.6129   -1523.9873     444.5529    251.20641   -71.737108    39359.762 
 1001200    305.52818   -1535.9767    467.71958    302.37864   -310.93863    39359.762 
 1001300    306.17619   -1550.0635    442.24984    265.72925   -9.4279902    39359.762 
 1001400    292.18131   -1502.3609     467.3523    275.75159   -630.23324    39359.762 
 1001500    291.57343   -1492.2117    470.93072    286.75217   -306.65173    39359.762 
 1001600    307.11772   -1522.3694    455.04682    310.44413    15.796695    39359.762 
 1001700     305.3397   -1480.2211    467.85358    357.42274    189.77338    39359.762 
 1001800    300.58186   -1516.5104    445.14666     277.0823    -279.1717    39359.762 
 1001900     297.3842    -1494.883    465.77288    304.99079     330.2065    39359.762 
 1002000    297.34977   -1478.5434    443.94705    299.35017    439.25618    39359.762 
 1002100    288.53632   -1492.5295    455.39368     257.2725    621.03415    39359.762 
 1002200    306.94847   -1502.1993    479.18586    353.99396    249.65437    39359.762 
 1002300    306.78208   -1529.7207    459.35518     305.8954     364.2189    39359.762 
 1002400    300.27523   -1467.3102    483.16474    362.92498    103.38313    39359.762 
 1002500    265.10521    -1465.334    510.80863    234.76811   -521.92966    39359.762 
 1002600    297.66484   -1454.2384    453.41645    334.53799   -149.83211    39359.762 
 1002700    293.33987   -1469.5845    492.17394    338.54702   -700.77218    39359.762 
 1002800    303.81562   -1455.2932    469.29457    376.95449   -344.52453    39359.762 
 1002900    303.77271   -1457.6177    480.77457    385.91739   -295.71108    39359.762 
 1003000     298.2285   -1459.1249    471.26099    350.02471    66.373721    39359.762 
 1003100    299.80481   -1437.5153    477.10403    384.54882   -249.15513    39359.762 
 1003200    297.21548   -1473.9859    469.33505    328.69319   -322.53552    39359.762 
 1003300    310.47393   -1428.4396    476.07398    440.45737   -244.18489    39359.762 
 1003400    306.63235   -1383.9065    489.98192    481.66465   -43.423339    39359.762 
 1003500    295.05652   -1404.9726    488.11899    406.80512    19.311422    39359.762 
 1003600    304.28339    -1361.675    512.69676    516.07329    98.376257    39359.762 
 1003700    302.57253   -1449.2942    464.32365    372.40583    215.22865    39359.762 
 1003800    297.11208   -1453.9367    472.74276    351.68624    301.46834    39359.762 
 1003900    295.77725   -1439.8096    464.80938    351.89172    50.684871    39359.762 
 1004000    286.86107   -1458.4174    473.93159    302.40717     115.6696    39359.762 
 1004100     309.9096   -1437.0937    500.99038    454.18809    138.70282    39359.762 
 1004200    300.45823   -1413.6404    453.31261     387.5636    -201.9121    39359.762 
 1004300    295.92129   -1451.3212     500.3427    376.55969   -417.67786    39359.762 
 1004400    297.60869    -1476.737    482.11906    340.49013   -294.39604    39359.762 
 1004500    297.81406    -1455.077    464.57662    345.52896   -211.09414    39359.762 
 1004600    303.28368   -1461.3429    489.48298    388.70684    1.2837373    39359.762 
 1004700    315.03074    -1484.776    460.00289    388.49236   -91.317542    39359.762 
 1004800    301.87892   -1528.6615    483.21426    308.81758    530.99968    39359.762 
 1004900    302.60975    -1513.882    461.32156    304.98294    321.20113    39359.762 
 1005000    300.50507   -1498.2022    480.64093    330.54033    1001.5949    39359.762 
 1005100     300.6482   -1475.4981    474.05813    347.30372    135.28312    39359.762 
 1005200    303.92783   -1461.7993    483.15716    384.81427   -285.08999    39359.762 
 1005300    303.25822   -1421.8068    473.37113    412.01682     98.84413    39359.762 
 1005400     300.8991   -1455.0035    487.18557    382.05134    308.10279    39359.762 
 1005500    297.43603   -1454.9058    477.84849    357.27616     391.2832    39359.762 
 1005600    301.18723   -1473.6315      481.239    358.76931    362.87531    39359.762 
 1005697    286.04557   -1445.4625    495.83272    333.60468   -427.92264    39359.762 
Loop time of 599.991 on 32 procs for 1000000 steps with 1506 atoms

Performance: 144.002 ns/day, 0.167 hours/ns, 1666.693 timesteps/s
100.0% CPU use with 32 MPI tasks x no OpenMP threads

MPI task timing breakdown:
Section |  min time  |  avg time  |  max time  |%varavg| %total
---------------------------------------------------------------
Pair    | 224.44     | 265.19     | 300.45     | 101.6 | 44.20
Bond    | 1.4026     | 1.4957     | 1.6179     |   4.6 |  0.25
Neigh   | 39.128     | 39.187     | 39.245     |   0.6 |  6.53
Comm    | 246.58     | 281.8      | 322.18     |  98.4 | 46.97
Output  | 0.38838    | 0.40346    | 0.80704    |  11.4 |  0.07
Modify  | 8.6751     | 8.8697     | 9.3649     |   5.1 |  1.48
Other   |            | 3.047      |            |       |  0.51

Nlocal:        47.0625 ave          81 max          21 min
Histogram: 6 1 3 3 4 4 7 1 2 1
Nghost:        1892.97 ave        1980 max        1801 min
Histogram: 3 9 4 0 0 0 0 3 5 8
Neighs:        4981.16 ave       10384 max        1701 min
Histogram: 6 2 1 8 4 7 0 3 0 1

Total # of neighbors = 159397
Ave neighs/atom = 105.84130
Ave special neighs/atom = 2.0079681
Neighbor list builds = 49793
Dangerous builds = 0

# Output the system volume
variable v equal vol
print 'The system volume is $v'
The system volume is 39359.762476408

# Outputs
variable A equal xhi-xlo
variable B equal yhi-ylo
variable C equal zhi-zlo
variable D equal xy
variable E equal xz
variable F equal yz
print 'Lattice vectors'
Lattice vectors
print '$A 0 0'
34.0160715473484 0 0
print '$D $B 0'
0 34.0160715473484 0
print '$E $F $C'
0 0 34.0160715473484
Total wall time: 0:10:04
