LAMMPS data file
 1506 atoms
 1005 bonds
 506 angles
 4 dihedrals
 2 impropers
 6 atom types
 5 bond types
 3 angle types
 1 dihedral types
 1 improper types
 0 15 xlo xhi
 0 15 ylo yhi
 0 15 zlo zhi
 0 0 0 xy xz yz

# Atom types
#
# 1 O_2
# 2 N_2
# 3 C_2
# 4 H__HB
# 5 H_
# 6 O_3

# Bond Coeffs
#
# 1 O_2*C_2
# 2 N_2*C_2
# 3 N_2*H__HB
# 4 C_2*H_
# 5 O_3*H__HB

# Angle Coeffs
#
# 1 N_2
# 2 C_2
# 3 O_3

# Dihedral Coeffs
#
# 1 C1

# Inversion Coeffs
#
# 1 1

 Masses

 1 16
 2 14.01
 3 12.01
 4 1.01
 5 1.01
 6 16

 Atoms # full

1 1 1 0 11.2155461363625 8.80454793887555 9.36265426400006
2 1 2 0 9.96141055268632 9.9275328310018 7.85092866726851
3 1 3 0 10.6100577160642 9.85754410359336 9.04402030477069
4 1 4 0 9.52825136336667 10.7685792756683 7.64197794431726
5 1 5 0 10.6231911478502 10.9578728738461 9.93730576884344
6 1 4 0 9.84678291707722 8.96658294677318 6.9048015272098
7 2 4 0 10.2493053283263 9.53015228774399 4.8129329981748
8 2 6 0 11.2093053283263 9.53015228774399 4.8129329981748
9 2 4 0 11.4493053283263 8.60015228774399 4.8129329981748
10 3 4 0 12.9060393122211 11.6355961996038 7.16934452299029
11 3 6 0 13.8660393122211 11.6355961996038 7.16934452299029
12 3 4 0 14.1060393122211 10.7055961996038 7.16934452299029
13 4 4 0 10.6492627684213 13.692946937345 7.45093713048846
14 4 6 0 11.6092627684213 13.692946937345 7.45093713048846
15 4 4 0 11.8492627684213 12.762946937345 7.45093713048846
16 5 4 0 10.6204101273045 9.00338288670406 7.31874654418789
17 5 6 0 11.5804101273045 9.00338288670406 7.31874654418789
18 5 4 0 11.8204101273045 8.07338288670406 7.31874654418789
19 6 4 0 3.48106981066056 9.76931933703832 10.3002802922856
20 6 6 0 4.44106981066056 9.76931933703832 10.3002802922856
21 6 4 0 4.68106981066056 8.83931933703832 10.3002802922856
22 7 4 0 11.114800739307 12.8716465951316 5.74862422887236
23 7 6 0 12.074800739307 12.8716465951316 5.74862422887236
24 7 4 0 12.314800739307 11.9416465951316 5.74862422887236
25 8 4 0 11.3833885830548 11.7812759607937 13.988041668199
26 8 6 0 12.3433885830548 11.7812759607937 13.988041668199
27 8 4 0 12.5833885830548 10.8512759607937 13.988041668199
28 9 4 0 14.0944029686227 14.5933990929648 2.48634955147281
29 9 6 0 15.0544029686227 14.5933990929648 2.48634955147281
30 9 4 0 15.2944029686227 13.6633990929648 2.48634955147281
31 10 4 0 8.48706008328125 2.42382510256954 8.41185032855719
32 10 6 0 9.44706008328125 2.42382510256954 8.41185032855719
33 10 4 0 9.68706008328125 1.49382510256954 8.41185032855719
34 11 4 0 6.60234181137756 0.879997198181227 9.47923647821881
35 11 6 0 7.56234181137756 0.879997198181227 9.47923647821881
36 11 4 0 7.80234181137756 -0.0500028018187732 9.47923647821881
37 12 4 0 3.74574541158043 9.30891733890399 5.75839058496058
38 12 6 0 4.70574541158043 9.30891733890399 5.75839058496058
39 12 4 0 4.94574541158043 8.37891733890399 5.75839058496058
40 13 4 0 13.5448448213004 4.79443611268885 6.54396797181107
41 13 6 0 14.5048448213004 4.79443611268885 6.54396797181107
42 13 4 0 14.7448448213004 3.86443611268885 6.54396797181107
43 14 4 0 6.72331181282178 3.43599832541309 9.83465883764438
44 14 6 0 7.68331181282178 3.43599832541309 9.83465883764438
45 14 4 0 7.92331181282178 2.50599832541309 9.83465883764438
46 15 4 0 8.95772797099315 10.8851437158324 2.4370906711556
47 15 6 0 9.91772797099315 10.8851437158324 2.4370906711556
48 15 4 0 10.1577279709931 9.95514371583238 2.4370906711556
49 16 4 0 11.9661026824918 9.3506320488546 5.59798810514621
50 16 6 0 12.9261026824918 9.3506320488546 5.59798810514621
51 16 4 0 13.1661026824918 8.42063204885461 5.59798810514621
52 17 4 0 3.42001754368655 8.21940924431197 14.8558271687943
53 17 6 0 4.38001754368655 8.21940924431197 14.8558271687943
54 17 4 0 4.62001754368655 7.28940924431197 14.8558271687943
55 18 4 0 12.9130839036964 0.375029078396037 4.92462127120234
56 18 6 0 13.8730839036964 0.375029078396037 4.92462127120234
57 18 4 0 14.1130839036964 -0.554970921603963 4.92462127120234
58 19 4 0 7.84332398601808 10.8397942634206 0.628520770696923
59 19 6 0 8.80332398601808 10.8397942634206 0.628520770696923
60 19 4 0 9.04332398601808 9.90979426342063 0.628520770696923
61 20 4 0 6.25599914157763 2.9448399813287 2.79615912702866
62 20 6 0 7.21599914157763 2.9448399813287 2.79615912702866
63 20 4 0 7.45599914157763 2.0148399813287 2.79615912702866
64 21 4 0 8.03928976340219 4.19069405336864 9.26585600827821
65 21 6 0 8.99928976340219 4.19069405336864 9.26585600827821
66 21 4 0 9.23928976340219 3.26069405336864 9.26585600827821
67 22 4 0 9.90977722962387 13.3464565714262 3.55019107460976
68 22 6 0 10.8697772296239 13.3464565714262 3.55019107460976
69 22 4 0 11.1097772296239 12.4164565714262 3.55019107460976
70 23 4 0 10.4584464376979 11.2764593893103 7.08826830843464
71 23 6 0 11.4184464376979 11.2764593893103 7.08826830843464
72 23 4 0 11.6584464376979 10.3464593893103 7.08826830843464
73 24 4 0 0.0869170103408397 0.758647618759424 0.740019895602018
74 24 6 0 1.04691701034084 0.758647618759424 0.740019895602018
75 24 4 0 1.28691701034084 -0.171352381240577 0.740019895602018
76 25 4 0 7.79740560494363 4.5911529408209 10.2538101794198
77 25 6 0 8.75740560494363 4.5911529408209 10.2538101794198
78 25 4 0 8.99740560494363 3.6611529408209 10.2538101794198
79 26 4 0 -0.336469294996932 10.0659574362822 7.10063005448319
80 26 6 0 0.623530705003068 10.0659574362822 7.10063005448319
81 26 4 0 0.863530705003068 9.13595743628219 7.10063005448319
82 27 4 0 2.72309138366953 3.42867001699284 1.23234624392353
83 27 6 0 3.68309138366953 3.42867001699284 1.23234624392353
84 27 4 0 3.92309138366953 2.49867001699284 1.23234624392353
85 28 4 0 2.93485953167081 2.97795260598883 0.735031084623188
86 28 6 0 3.89485953167081 2.97795260598883 0.735031084623188
87 28 4 0 4.13485953167081 2.04795260598883 0.735031084623188
88 29 4 0 9.11419800410047 2.72010228055529 2.14161387761123
89 29 6 0 10.0741980041005 2.72010228055529 2.14161387761123
90 29 4 0 10.3141980041005 1.79010228055529 2.14161387761123
91 30 4 0 13.8832401337288 13.7393748647906 12.4728444067296
92 30 6 0 14.8432401337288 13.7393748647906 12.4728444067296
93 30 4 0 15.0832401337288 12.8093748647906 12.4728444067296
94 31 4 0 0.988447396522388 13.936342646312 9.87833859398961
95 31 6 0 1.94844739652239 13.936342646312 9.87833859398961
96 31 4 0 2.18844739652239 13.006342646312 9.87833859398961
97 32 4 0 1.69246020770632 12.5882202088274 3.29567097011022
98 32 6 0 2.65246020770632 12.5882202088274 3.29567097011022
99 32 4 0 2.89246020770632 11.6582202088274 3.29567097011022
100 33 4 0 3.65029993976466 10.4022535604332 13.7392442976125
101 33 6 0 4.61029993976466 10.4022535604332 13.7392442976125
102 33 4 0 4.85029993976466 9.47225356043317 13.7392442976125
103 34 4 0 2.42946458442137 4.97036321478896 0.93758731847629
104 34 6 0 3.38946458442137 4.97036321478896 0.93758731847629
105 34 4 0 3.62946458442137 4.04036321478896 0.93758731847629
106 35 4 0 7.58094433506019 15.2651325733773 4.91595972329378
107 35 6 0 8.54094433506019 15.2651325733773 4.91595972329378
108 35 4 0 8.78094433506019 14.3351325733773 4.91595972329378
109 36 4 0 12.374689414138 3.80096838152036 4.39123898511752
110 36 6 0 13.334689414138 3.80096838152036 4.39123898511752
111 36 4 0 13.574689414138 2.87096838152036 4.39123898511752
112 37 4 0 11.1519906534534 8.00181636162102 2.64134978293441
113 37 6 0 12.1119906534534 8.00181636162102 2.64134978293441
114 37 4 0 12.3519906534534 7.07181636162102 2.64134978293441
115 38 4 0 9.0884872670006 1.05242833419703 1.90032761427574
116 38 6 0 10.0484872670006 1.05242833419703 1.90032761427574
117 38 4 0 10.2884872670006 0.122428334197029 1.90032761427574
118 39 4 0 6.82515234497376 5.0006429133378 8.52465665317141
119 39 6 0 7.78515234497376 5.0006429133378 8.52465665317141
120 39 4 0 8.02515234497376 4.0706429133378 8.52465665317141
121 40 4 0 6.68224534529261 2.50117362983525 12.3850331059657
122 40 6 0 7.64224534529261 2.50117362983525 12.3850331059657
123 40 4 0 7.88224534529261 1.57117362983525 12.3850331059657
124 41 4 0 7.34237192242406 12.4128031560127 5.35363885690458
125 41 6 0 8.30237192242406 12.4128031560127 5.35363885690458
126 41 4 0 8.54237192242406 11.4828031560127 5.35363885690458
127 42 4 0 2.48053868810646 2.15232322033495 12.6235693891067
128 42 6 0 3.44053868810646 2.15232322033495 12.6235693891067
129 42 4 0 3.68053868810646 1.22232322033495 12.6235693891067
130 43 4 0 0.0149855324719101 6.16750990081578 12.943754241569
131 43 6 0 0.97498553247191 6.16750990081578 12.943754241569
132 43 4 0 1.21498553247191 5.23750990081578 12.943754241569
133 44 4 0 2.93343427634798 5.19711388898082 2.93396515538916
134 44 6 0 3.89343427634798 5.19711388898082 2.93396515538916
135 44 4 0 4.13343427634798 4.26711388898082 2.93396515538916
136 45 4 0 4.84986998766661 13.1664138710499 2.02332829590887
137 45 6 0 5.80986998766661 13.1664138710499 2.02332829590887
138 45 4 0 6.04986998766661 12.2364138710499 2.02332829590887
139 46 4 0 8.6166737337783 5.04494211677462 2.88615774130449
140 46 6 0 9.5766737337783 5.04494211677462 2.88615774130449
141 46 4 0 9.8166737337783 4.11494211677462 2.88615774130449
142 47 4 0 10.0727247625776 6.44131222780794 1.28850744338706
143 47 6 0 11.0327247625776 6.44131222780794 1.28850744338706
144 47 4 0 11.2727247625776 5.51131222780794 1.28850744338706
145 48 4 0 8.00955147991888 2.86967995151877 7.99617905518971
146 48 6 0 8.96955147991888 2.86967995151877 7.99617905518971
147 48 4 0 9.20955147991888 1.93967995151877 7.99617905518971
148 49 4 0 8.31049718239345 4.14336472208612 0.22156075341627
149 49 6 0 9.27049718239345 4.14336472208612 0.22156075341627
150 49 4 0 9.51049718239345 3.21336472208612 0.22156075341627
151 50 4 0 8.50210663673468 9.21183460549451 10.5364452057984
152 50 6 0 9.46210663673468 9.21183460549451 10.5364452057984
153 50 4 0 9.70210663673468 8.28183460549451 10.5364452057984
154 51 4 0 7.69588984709233 11.9330383643415 0.288456841371953
155 51 6 0 8.65588984709233 11.9330383643415 0.288456841371953
156 51 4 0 8.89588984709233 11.0030383643415 0.288456841371953
157 52 4 0 1.39738528800197 3.41031275497749 10.3975288791116
158 52 6 0 2.35738528800197 3.41031275497749 10.3975288791116
159 52 4 0 2.59738528800197 2.48031275497749 10.3975288791116
160 53 4 0 6.67001341047697 2.82871328102425 12.0823709992692
161 53 6 0 7.63001341047697 2.82871328102425 12.0823709992692
162 53 4 0 7.87001341047697 1.89871328102425 12.0823709992692
163 54 4 0 10.3729813119583 14.8631276194379 8.81159182987176
164 54 6 0 11.3329813119583 14.8631276194379 8.81159182987176
165 54 4 0 11.5729813119583 13.9331276194379 8.81159182987176
166 55 4 0 5.23454742433503 1.79481624317355 0.994082788238302
167 55 6 0 6.19454742433503 1.79481624317355 0.994082788238302
168 55 4 0 6.43454742433503 0.864816243173554 0.994082788238302
169 56 4 0 1.37836795809679 13.7436704958696 0.0619901670143008
170 56 6 0 2.33836795809679 13.7436704958696 0.0619901670143008
171 56 4 0 2.57836795809679 12.8136704958696 0.0619901670143008
172 57 4 0 11.697074701516 2.3218894323241 3.24594626552425
173 57 6 0 12.657074701516 2.3218894323241 3.24594626552425
174 57 4 0 12.897074701516 1.3918894323241 3.24594626552425
175 58 4 0 12.3506697888672 12.3006404742505 11.0615746211261
176 58 6 0 13.3106697888672 12.3006404742505 11.0615746211261
177 58 4 0 13.5506697888672 11.3706404742505 11.0615746211261
178 59 4 0 11.0474450471532 3.20353978121653 3.92480887938291
179 59 6 0 12.0074450471532 3.20353978121653 3.92480887938291
180 59 4 0 12.2474450471532 2.27353978121653 3.92480887938291
181 60 4 0 4.22900645222515 9.26391103811562 8.80897978437133
182 60 6 0 5.18900645222515 9.26391103811562 8.80897978437133
183 60 4 0 5.42900645222515 8.33391103811562 8.80897978437133
184 61 4 0 1.41297555106692 11.2634470154904 9.5422463316936
185 61 6 0 2.37297555106692 11.2634470154904 9.5422463316936
186 61 4 0 2.61297555106692 10.3334470154904 9.5422463316936
187 62 4 0 11.8801584192272 3.82362778805196 2.50825190450996
188 62 6 0 12.8401584192272 3.82362778805196 2.50825190450996
189 62 4 0 13.0801584192272 2.89362778805196 2.50825190450996
190 63 4 0 2.36504180051386 6.05402455124073 2.39243058138527
191 63 6 0 3.32504180051386 6.05402455124073 2.39243058138527
192 63 4 0 3.56504180051386 5.12402455124073 2.39243058138527
193 64 4 0 10.1474574585166 10.8384365417901 0.780340873170644
194 64 6 0 11.1074574585166 10.8384365417901 0.780340873170644
195 64 4 0 11.3474574585166 9.90843654179014 0.780340873170644
196 65 4 0 3.10825523265637 12.5967358417716 6.60214244504459
197 65 6 0 4.06825523265637 12.5967358417716 6.60214244504459
198 65 4 0 4.30825523265638 11.6667358417716 6.60214244504459
199 66 4 0 1.56668628958985 3.26369570143521 11.7036861483939
200 66 6 0 2.52668628958985 3.26369570143521 11.7036861483939
201 66 4 0 2.76668628958985 2.33369570143521 11.7036861483939
202 67 4 0 1.06154234890826 11.7202188602556 2.79619305278175
203 67 6 0 2.02154234890826 11.7202188602556 2.79619305278175
204 67 4 0 2.26154234890826 10.7902188602556 2.79619305278175
205 68 4 0 13.8422856204864 13.2695501825679 0.449075972428545
206 68 6 0 14.8022856204864 13.2695501825679 0.449075972428545
207 68 4 0 15.0422856204864 12.3395501825679 0.449075972428545
208 69 4 0 7.91256560987793 4.96727338683791 1.28866338869557
209 69 6 0 8.87256560987793 4.96727338683791 1.28866338869557
210 69 4 0 9.11256560987793 4.03727338683791 1.28866338869557
211 70 4 0 11.0460234554205 5.71637938422151 12.2718052903656
212 70 6 0 12.0060234554205 5.71637938422151 12.2718052903656
213 70 4 0 12.2460234554205 4.78637938422151 12.2718052903656
214 71 4 0 2.36527651824988 1.39994524925947 0.444512878311798
215 71 6 0 3.32527651824988 1.39994524925947 0.444512878311798
216 71 4 0 3.56527651824988 0.469945249259472 0.444512878311798
217 72 4 0 1.97889646908268 2.64297093189321 14.0668854117393
218 72 6 0 2.93889646908268 2.64297093189321 14.0668854117393
219 72 4 0 3.17889646908268 1.71297093189321 14.0668854117393
220 73 4 0 2.78228849449195 3.5756717824284 13.7906269705854
221 73 6 0 3.74228849449195 3.5756717824284 13.7906269705854
222 73 4 0 3.98228849449195 2.6456717824284 13.7906269705854
223 74 4 0 13.4409130601864 1.16009257076308 12.6198395818938
224 74 6 0 14.4009130601864 1.16009257076308 12.6198395818938
225 74 4 0 14.6409130601864 0.230092570763081 12.6198395818938
226 75 4 0 2.74770765725523 13.2861866154149 10.3079104330391
227 75 6 0 3.70770765725523 13.2861866154149 10.3079104330391
228 75 4 0 3.94770765725523 12.3561866154149 10.3079104330391
229 76 4 0 9.79008479087613 5.39048582007177 13.4683294733986
230 76 6 0 10.7500847908761 5.39048582007177 13.4683294733986
231 76 4 0 10.9900847908761 4.46048582007177 13.4683294733986
232 77 4 0 13.7982596042287 12.0870634172484 4.31954736239277
233 77 6 0 14.7582596042287 12.0870634172484 4.31954736239277
234 77 4 0 14.9982596042287 11.1570634172484 4.31954736239277
235 78 4 0 4.92595716074109 2.91011837352067 8.76977579318918
236 78 6 0 5.88595716074109 2.91011837352067 8.76977579318918
237 78 4 0 6.12595716074109 1.98011837352067 8.76977579318918
238 79 4 0 9.85087896158919 3.84509931825101 12.8817072836682
239 79 6 0 10.8108789615892 3.84509931825101 12.8817072836682
240 79 4 0 11.0508789615892 2.91509931825101 12.8817072836682
241 80 4 0 2.05802175027318 13.4734510727599 8.16109335632063
242 80 6 0 3.01802175027318 13.4734510727599 8.16109335632063
243 80 4 0 3.25802175027318 12.5434510727599 8.16109335632063
244 81 4 0 11.1332316747587 1.32709824404679 4.57324108108878
245 81 6 0 12.0932316747587 1.32709824404679 4.57324108108878
246 81 4 0 12.3332316747587 0.397098244046792 4.57324108108878
247 82 4 0 3.76818938224576 5.7506954231672 9.244513126323
248 82 6 0 4.72818938224576 5.7506954231672 9.244513126323
249 82 4 0 4.96818938224576 4.8206954231672 9.244513126323
250 83 4 0 13.7017768963426 14.0146201608609 11.3503239315469
251 83 6 0 14.6617768963426 14.0146201608609 11.3503239315469
252 83 4 0 14.9017768963426 13.0846201608609 11.3503239315469
253 84 4 0 4.45853769357316 8.15940572804771 7.59079192299396
254 84 6 0 5.41853769357316 8.15940572804771 7.59079192299396
255 84 4 0 5.65853769357316 7.22940572804771 7.59079192299396
256 85 4 0 4.83385257932358 13.7953054676205 6.32022471399978
257 85 6 0 5.79385257932358 13.7953054676205 6.32022471399978
258 85 4 0 6.03385257932358 12.8653054676205 6.32022471399978
259 86 4 0 14.0166396489087 3.83708087535575 3.17183284903876
260 86 6 0 14.9766396489087 3.83708087535575 3.17183284903876
261 86 4 0 15.2166396489087 2.90708087535575 3.17183284903876
262 87 4 0 3.65953444314189 5.92029305681586 10.6224946584553
263 87 6 0 4.61953444314189 5.92029305681586 10.6224946584553
264 87 4 0 4.85953444314189 4.99029305681586 10.6224946584553
265 88 4 0 1.23552124176174 1.99103974312544 0.790418505202979
266 88 6 0 2.19552124176174 1.99103974312544 0.790418505202979
267 88 4 0 2.43552124176174 1.06103974312544 0.790418505202979
268 89 4 0 5.15538432679139 8.64859861362726 10.4131830018014
269 89 6 0 6.11538432679139 8.64859861362726 10.4131830018014
270 89 4 0 6.35538432679139 7.71859861362725 10.4131830018014
271 90 4 0 13.7712252912763 0.814243640461937 11.3468766608275
272 90 6 0 14.7312252912764 0.814243640461937 11.3468766608275
273 90 4 0 14.9712252912764 -0.115756359538063 11.3468766608275
274 91 4 0 8.57012377979234 4.63250800775364 6.41747576650232
275 91 6 0 9.53012377979234 4.63250800775364 6.41747576650232
276 91 4 0 9.77012377979234 3.70250800775364 6.41747576650232
277 92 4 0 4.61537085866556 9.93925284751691 2.464253611397
278 92 6 0 5.57537085866556 9.93925284751691 2.464253611397
279 92 4 0 5.81537085866556 9.00925284751691 2.464253611397
280 93 4 0 2.01487759404816 2.70859019056894 12.7568889549002
281 93 6 0 2.97487759404816 2.70859019056894 12.7568889549002
282 93 4 0 3.21487759404816 1.77859019056894 12.7568889549002
283 94 4 0 0.356102197403088 15.1348938948382 8.36616399697959
284 94 6 0 1.31610219740309 15.1348938948382 8.36616399697959
285 94 4 0 1.55610219740309 14.2048938948382 8.36616399697959
286 95 4 0 2.16437779177912 5.59086138656363 5.58157102321275
287 95 6 0 3.12437779177912 5.59086138656363 5.58157102321275
288 95 4 0 3.36437779177912 4.66086138656363 5.58157102321275
289 96 4 0 7.67405109523796 11.7561198088247 12.901991775725
290 96 6 0 8.63405109523796 11.7561198088247 12.901991775725
291 96 4 0 8.87405109523796 10.8261198088247 12.901991775725
292 97 4 0 1.17412908512168 2.19719872501679 8.44098304398358
293 97 6 0 2.13412908512168 2.19719872501679 8.44098304398358
294 97 4 0 2.37412908512168 1.26719872501679 8.44098304398358
295 98 4 0 0.528797300504521 8.64695000852458 7.93192729703151
296 98 6 0 1.48879730050452 8.64695000852458 7.93192729703151
297 98 4 0 1.72879730050452 7.71695000852458 7.93192729703151
298 99 4 0 0.146368197603151 3.42979144928046 12.8727348020766
299 99 6 0 1.10636819760315 3.42979144928046 12.8727348020766
300 99 4 0 1.34636819760315 2.49979144928046 12.8727348020766
301 100 4 0 13.521161767859 12.3856090246141 12.3988608119544
302 100 6 0 14.481161767859 12.3856090246141 12.3988608119544
303 100 4 0 14.721161767859 11.4556090246141 12.3988608119544
304 101 4 0 9.0728829677403 13.0355027927458 0.537256971001625
305 101 6 0 10.0328829677403 13.0355027927458 0.537256971001625
306 101 4 0 10.2728829677403 12.1055027927458 0.537256971001625
307 102 4 0 9.33933507811278 5.04192422650754 10.9020458674058
308 102 6 0 10.2993350781128 5.04192422650754 10.9020458674058
309 102 4 0 10.5393350781128 4.11192422650754 10.9020458674058
310 103 4 0 5.81745440184139 3.39377897599712 3.07386541971937
311 103 6 0 6.77745440184139 3.39377897599712 3.07386541971937
312 103 4 0 7.01745440184139 2.46377897599712 3.07386541971937
313 104 4 0 8.00268456732854 10.5441970603447 13.931239284575
314 104 6 0 8.96268456732854 10.5441970603447 13.931239284575
315 104 4 0 9.20268456732854 9.61419706034474 13.931239284575
316 105 4 0 3.48117846806534 1.70987712725997 5.92292631743476
317 105 6 0 4.44117846806534 1.70987712725997 5.92292631743476
318 105 4 0 4.68117846806534 0.77987712725997 5.92292631743476
319 106 4 0 12.7788795302343 2.80926153104752 9.85591287841089
320 106 6 0 13.7388795302343 2.80926153104752 9.85591287841089
321 106 4 0 13.9788795302343 1.87926153104752 9.85591287841089
322 107 4 0 11.3690590769704 11.2902546154242 12.7792183030397
323 107 6 0 12.3290590769704 11.2902546154242 12.7792183030397
324 107 4 0 12.5690590769704 10.3602546154242 12.7792183030397
325 108 4 0 3.26563255439512 14.2771413053293 7.25077026989311
326 108 6 0 4.22563255439512 14.2771413053293 7.25077026989311
327 108 4 0 4.46563255439512 13.3471413053293 7.25077026989311
328 109 4 0 4.37818375110626 14.0237945240829 4.86275141593069
329 109 6 0 5.33818375110626 14.0237945240829 4.86275141593069
330 109 4 0 5.57818375110626 13.0937945240829 4.86275141593069
331 110 4 0 4.65971995538101 14.1817714592349 12.7980353648309
332 110 6 0 5.61971995538101 14.1817714592349 12.7980353648309
333 110 4 0 5.85971995538101 13.2517714592349 12.7980353648309
334 111 4 0 8.03416791415773 1.4029639916867 6.24123817775398
335 111 6 0 8.99416791415773 1.4029639916867 6.24123817775398
336 111 4 0 9.23416791415773 0.472963991686702 6.24123817775398
337 112 4 0 2.75174484631978 0.679388492545113 11.2730066583026
338 112 6 0 3.71174484631978 0.679388492545113 11.2730066583026
339 112 4 0 3.95174484631978 -0.250611507454887 11.2730066583026
340 113 4 0 10.2864651444554 3.04876319639385 11.9994399393909
341 113 6 0 11.2464651444554 3.04876319639385 11.9994399393909
342 113 4 0 11.4864651444554 2.11876319639385 11.9994399393909
343 114 4 0 10.9382345904317 10.933565572314 1.26466186135076
344 114 6 0 11.8982345904317 10.933565572314 1.26466186135076
345 114 4 0 12.1382345904317 10.003565572314 1.26466186135076
346 115 4 0 7.65450169259682 8.42692031798884 3.1222787022125
347 115 6 0 8.61450169259682 8.42692031798884 3.1222787022125
348 115 4 0 8.85450169259682 7.49692031798884 3.1222787022125
349 116 4 0 5.16231518631801 2.72887604468502 2.73782269796357
350 116 6 0 6.12231518631801 2.72887604468502 2.73782269796357
351 116 4 0 6.36231518631801 1.79887604468502 2.73782269796357
352 117 4 0 0.742150644510984 3.73894891276956 6.15757576189935
353 117 6 0 1.70215064451098 3.73894891276956 6.15757576189935
354 117 4 0 1.94215064451098 2.80894891276956 6.15757576189935
355 118 4 0 10.1655562435929 5.84501135320403 10.229655256262
356 118 6 0 11.1255562435929 5.84501135320403 10.229655256262
357 118 4 0 11.3655562435929 4.91501135320403 10.229655256262
358 119 4 0 -0.533916723942384 14.8639479737636 5.92545608407818
359 119 6 0 0.426083276057616 14.8639479737636 5.92545608407818
360 119 4 0 0.666083276057616 13.9339479737636 5.92545608407818
361 120 4 0 2.30455107565038 13.2494226032309 11.7182172881439
362 120 6 0 3.26455107565038 13.2494226032309 11.7182172881439
363 120 4 0 3.50455107565038 12.3194226032309 11.7182172881439
364 121 4 0 5.51196381493472 15.0982212314289 12.9482889350038
365 121 6 0 6.47196381493472 15.0982212314289 12.9482889350038
366 121 4 0 6.71196381493472 14.1682212314289 12.9482889350038
367 122 4 0 1.5326033304166 14.2507242811285 9.79863034095615
368 122 6 0 2.49260333041661 14.2507242811285 9.79863034095615
369 122 4 0 2.73260333041661 13.3207242811285 9.79863034095615
370 123 4 0 12.8367353793886 6.43744613783434 0.183351341402158
371 123 6 0 13.7967353793886 6.43744613783434 0.183351341402158
372 123 4 0 14.0367353793886 5.50744613783434 0.183351341402158
373 124 4 0 7.43432042931207 11.4641102908086 0.287305562524125
374 124 6 0 8.39432042931207 11.4641102908086 0.287305562524125
375 124 4 0 8.63432042931207 10.5341102908086 0.287305562524125
376 125 4 0 4.3979274043534 9.98362131341361 1.94774132687598
377 125 6 0 5.3579274043534 9.98362131341361 1.94774132687598
378 125 4 0 5.5979274043534 9.05362131341361 1.94774132687598
379 126 4 0 13.6701029799599 8.59541940543801 2.97872783965431
380 126 6 0 14.6301029799599 8.59541940543801 2.97872783965431
381 126 4 0 14.8701029799599 7.66541940543801 2.97872783965431
382 127 4 0 0.91444496341981 5.77905145398341 10.2474056789652
383 127 6 0 1.87444496341981 5.77905145398341 10.2474056789652
384 127 4 0 2.11444496341981 4.84905145398341 10.2474056789652
385 128 4 0 9.06659727727063 0.518808159222826 4.61600668611936
386 128 6 0 10.0265972772706 0.518808159222826 4.61600668611936
387 128 4 0 10.2665972772706 -0.411191840777174 4.61600668611936
388 129 4 0 11.2359545943048 2.20154130872339 11.7285064444877
389 129 6 0 12.1959545943048 2.20154130872339 11.7285064444877
390 129 4 0 12.4359545943048 1.27154130872339 11.7285064444877
391 130 4 0 11.5139876031037 4.79331003542989 4.07735354849137
392 130 6 0 12.4739876031037 4.79331003542989 4.07735354849137
393 130 4 0 12.7139876031037 3.86331003542989 4.07735354849137
394 131 4 0 4.10796116033569 7.74526443839073 11.4319473551586
395 131 6 0 5.06796116033569 7.74526443839073 11.4319473551586
396 131 4 0 5.30796116033569 6.81526443839073 11.4319473551586
397 132 4 0 13.5172586438432 2.98708984785713 4.76137475576252
398 132 6 0 14.4772586438432 2.98708984785713 4.76137475576252
399 132 4 0 14.7172586438432 2.05708984785713 4.76137475576252
400 133 4 0 12.775580496965 1.65369465173222 3.61197608406655
401 133 6 0 13.735580496965 1.65369465173222 3.61197608406655
402 133 4 0 13.975580496965 0.723694651732221 3.61197608406655
403 134 4 0 3.96041846877895 2.95251733664423 12.1382775390521
404 134 6 0 4.92041846877895 2.95251733664423 12.1382775390521
405 134 4 0 5.16041846877895 2.02251733664423 12.1382775390521
406 135 4 0 10.3407327672187 2.84168578841724 2.10744317737408
407 135 6 0 11.3007327672187 2.84168578841724 2.10744317737408
408 135 4 0 11.5407327672187 1.91168578841723 2.10744317737408
409 136 4 0 6.73965256704949 9.67581946909428 1.8404565739911
410 136 6 0 7.69965256704949 9.67581946909428 1.8404565739911
411 136 4 0 7.93965256704949 8.74581946909428 1.8404565739911
412 137 4 0 7.17008170017041 12.8279580168333 13.5174177540466
413 137 6 0 8.13008170017041 12.8279580168333 13.5174177540466
414 137 4 0 8.37008170017041 11.8979580168333 13.5174177540466
415 138 4 0 6.76195842839777 11.0895164757408 0.975372469983995
416 138 6 0 7.72195842839777 11.0895164757408 0.975372469983995
417 138 4 0 7.96195842839778 10.1595164757408 0.975372469983995
418 139 4 0 3.16681312208064 14.8072496235278 13.8718392443843
419 139 6 0 4.12681312208064 14.8072496235278 13.8718392443843
420 139 4 0 4.36681312208064 13.8772496235278 13.8718392443843
421 140 4 0 11.0513772738352 9.98302148696035 5.74443909572437
422 140 6 0 12.0113772738352 9.98302148696035 5.74443909572437
423 140 4 0 12.2513772738352 9.05302148696035 5.74443909572437
424 141 4 0 6.357604921069 10.267484183833 0.518933858256787
425 141 6 0 7.317604921069 10.267484183833 0.518933858256787
426 141 4 0 7.557604921069 9.337484183833 0.518933858256787
427 142 4 0 13.2159420002438 10.3293419062998 13.7979606783483
428 142 6 0 14.1759420002438 10.3293419062998 13.7979606783483
429 142 4 0 14.4159420002438 9.39934190629982 13.7979606783483
430 143 4 0 3.70374659702182 13.9502779794298 3.94762330572121
431 143 6 0 4.66374659702182 13.9502779794298 3.94762330572121
432 143 4 0 4.90374659702182 13.0202779794298 3.94762330572121
433 144 4 0 13.9853151181899 14.2755026083346 12.0373021590058
434 144 6 0 14.9453151181899 14.2755026083346 12.0373021590058
435 144 4 0 15.1853151181899 13.3455026083346 12.0373021590058
436 145 4 0 13.8840181280114 14.601185378097 10.4737683199346
437 145 6 0 14.8440181280114 14.601185378097 10.4737683199346
438 145 4 0 15.0840181280114 13.671185378097 10.4737683199346
439 146 4 0 -0.484634426683187 12.1519297295623 8.32256932044402
440 146 6 0 0.475365573316813 12.1519297295623 8.32256932044402
441 146 4 0 0.715365573316812 11.2219297295623 8.32256932044402
442 147 4 0 9.94838026628829 10.9216411834955 7.14021000894718
443 147 6 0 10.9083802662883 10.9216411834955 7.14021000894718
444 147 4 0 11.1483802662883 9.99164118349552 7.14021000894718
445 148 4 0 7.88174605390057 2.35554234398529 4.1307490481995
446 148 6 0 8.84174605390057 2.35554234398529 4.1307490481995
447 148 4 0 9.08174605390057 1.42554234398529 4.1307490481995
448 149 4 0 13.3816103618313 11.4250726140477 4.1302150581032
449 149 6 0 14.3416103618313 11.4250726140477 4.1302150581032
450 149 4 0 14.5816103618313 10.4950726140477 4.1302150581032
451 150 4 0 2.53260273995809 3.18355527398176 4.12069394951686
452 150 6 0 3.49260273995809 3.18355527398176 4.12069394951686
453 150 4 0 3.73260273995809 2.25355527398176 4.12069394951686
454 151 4 0 1.72335706578568 10.4099062380288 14.1679853119422
455 151 6 0 2.68335706578568 10.4099062380288 14.1679853119422
456 151 4 0 2.92335706578568 9.47990623802878 14.1679853119422
457 152 4 0 8.83158542725258 12.8784208911844 2.23524233791977
458 152 6 0 9.79158542725258 12.8784208911844 2.23524233791977
459 152 4 0 10.0315854272526 11.9484208911844 2.23524233791977
460 153 4 0 3.51696579993702 14.8348621481005 2.67816506442614
461 153 6 0 4.47696579993702 14.8348621481005 2.67816506442614
462 153 4 0 4.71696579993703 13.9048621481005 2.67816506442614
463 154 4 0 13.052748982301 12.9570609579701 2.6040300889872
464 154 6 0 14.012748982301 12.9570609579701 2.6040300889872
465 154 4 0 14.252748982301 12.0270609579701 2.6040300889872
466 155 4 0 2.18480132563971 2.40000041242689 2.15429761447012
467 155 6 0 3.14480132563971 2.40000041242689 2.15429761447012
468 155 4 0 3.38480132563971 1.47000041242689 2.15429761447012
469 156 4 0 4.19663547581993 8.86909946141765 0.889988756971434
470 156 6 0 5.15663547581993 8.86909946141765 0.889988756971434
471 156 4 0 5.39663547581993 7.93909946141765 0.889988756971434
472 157 4 0 6.40611289112829 2.94572677271441 11.5205159434117
473 157 6 0 7.36611289112829 2.94572677271441 11.5205159434117
474 157 4 0 7.60611289112829 2.01572677271441 11.5205159434117
475 158 4 0 13.1507314920612 7.1629804807622 13.7077703874093