LAMMPS (29 Sep 2021 - Update 1)
# Test LAMMPS input file for single DeFDe

# Initialize simulation

clear

units real
atom_style full
boundary p p p
dielectric 1
special_bonds dreiding

bond_style harmonic
angle_style harmonic
dihedral_style harmonic
improper_style umbrella
pair_style hybrid/overlay hbond/dreiding/lj 4 9.0 11.0 90 lj/cut 8.50000

# Read data file
read_data frag5.dat
Reading data file ...
  triclinic box = (0.0000000 0.0000000 0.0000000) to (15.000000 15.000000 15.000000) with tilt (0.0000000 0.0000000 0.0000000)
  2 by 4 by 4 MPI processor grid
  reading atoms ...
  1506 atoms
  scanning bonds ...
  3 = max bonds/atom
  scanning angles ...
  3 = max angles/atom
  scanning dihedrals ...
  4 = max dihedrals/atom
  scanning impropers ...
  1 = max impropers/atom
  reading bonds ...
  1005 bonds
  reading angles ...
  506 angles
  reading dihedrals ...
  4 dihedrals
  reading impropers ...
  2 impropers
Finding 1-2 1-3 1-4 neighbors ...
  special bond factors lj:    0        0        1       
  special bond factors coul:  0        0        1       
     3 = max # of 1-2 neighbors
     2 = max # of 1-3 neighbors
     5 = max # of special neighbors
  special bonds CPU = 0.002 seconds
  read_data CPU = 0.017 seconds

# Dreiding potential information

bond_coeff 1 700 1.22
bond_coeff 2 700 1.275
bond_coeff 3 350 0.935
bond_coeff 4 350 0.99
bond_coeff 5 350 0.98

angle_coeff 1 50 120
angle_coeff 2 50 120
angle_coeff 3 50 104.51

dihedral_coeff 1 5.625 -1 2

improper_coeff 1 40 0

pair_coeff 1 1 lj/cut 0.0957 3.4046
pair_coeff 1 2 lj/cut 0.0860649754545948 3.53100349192691
pair_coeff 1 3 lj/cut 0.0953995283007206 3.64309650983885
pair_coeff 1 4 lj/cut 0.0030935416596516 3.29710294046152
pair_coeff 1 5 lj/cut 0.0381397430510485 3.29813538230316
pair_coeff 1 6 lj/cut 0.0957 3.4046
pair_coeff 2 2 lj/cut 0.0774 3.6621
pair_coeff 2 3 lj/cut 0.0857947550844456 3.77835472527395
pair_coeff 2 4 lj/cut 0.00278208554864871 3.41951536039831
pair_coeff 2 5 lj/cut 0.0342998542270955 3.42058613398347
pair_coeff 2 6 lj/cut 0.0860649754545948 3.53100349192691
pair_coeff 3 3 lj/cut 0.0951 3.8983
pair_coeff 3 4 lj/cut 0.00308382878902186 3.52806914614779
pair_coeff 3 5 lj/cut 0.0380199947396104 3.52917391183829
pair_coeff 3 6 lj/cut 0.0953995283007206 3.64309650983885
pair_coeff 4 4 lj/cut 1e-04 3.193
pair_coeff 4 5 lj/cut 0.0012328828005938 3.19399984345648
pair_coeff 4 6 lj/cut 0.0030935416596516 3.29710294046152
pair_coeff 5 5 lj/cut 0.0152 3.195
pair_coeff 5 6 lj/cut 0.0381397430510485 3.29813538230316
pair_coeff 6 6 lj/cut 0.0957 3.4046
pair_coeff 1 2 hbond/dreiding/lj 4 j 9.50 2.75 4 9.0 11.0 90
pair_coeff 2 2 hbond/dreiding/lj 4 j 9.50 2.75 4 9.0 11.0 90
pair_coeff 2 6 hbond/dreiding/lj 4 i 9.50 2.75 4 9.0 11.0 90
pair_coeff 1 6 hbond/dreiding/lj 4 j 9.50 2.75 4 9.0 11.0 90
pair_coeff 2 6 hbond/dreiding/lj 4 j 9.50 2.75 4 9.0 11.0 90
pair_coeff 6 6 hbond/dreiding/lj 4 j 9.50 2.75 4 9.0 11.0 90

neighbor 2 bin
neigh_modify every 2 one 10000

# Gemoetric relaxation
fix 1 all box/relax iso 1.0 vmax 0.001
minimize 1.0e-4 1.0e-6 10000 10000
WARNING: Using 'neigh_modify every 1 delay 0 check yes' setting during minimization (../min.cpp:188)
Neighbor list info ...
  update every 1 steps, delay 0 steps, check yes
  max neighbors/atom: 10000, page size: 100000
  master list distance cutoff = 13
  ghost atom cutoff = 13
  binsize = 6.5, bins = 3 3 3
  3 neighbor lists, perpetual/occasional/extra = 3 0 0
  (1) pair hbond/dreiding/lj, perpetual, skip from (3)
      attributes: full, newton on
      pair build: skip
      stencil: none
      bin: none
  (2) pair lj/cut, perpetual, half/full from (3)
      attributes: half, newton on
      pair build: halffull/newton
      stencil: none
      bin: none
  (3) neighbor class addition, perpetual
      attributes: full, newton on
      pair build: full/bin
      stencil: full/bin/3d
      bin: standard
Per MPI rank memory allocation (min/avg/max) = 11.69 | 12.03 | 12.61 Mbytes
Step Temp E_pair E_mol TotEng Press Volume 
       0            0 4.2956816e+17    269.86096 4.2956816e+17 3.4909402e+19         3375 
    5042            0   -920.82119    15.751133   -905.07006    89.696445    41402.763 
Loop time of 5.16984 on 32 procs for 5042 steps with 1506 atoms

100.0% CPU use with 32 MPI tasks x no OpenMP threads

Minimization stats:
  Stopping criterion = energy tolerance
  Energy initial, next-to-last, final = 
    4.29568160136246e+17  -904.435305806115  -904.515459449198
  Force two-norm initial, final = 8.0664067e+19 99.143508
  Force max component initial, final = 4.7385700e+19 69.664924
  Final line search alpha, max atom move = 1.5077514e-05 0.0010503738
  Iterations, force evaluations = 5042 5043

MPI task timing breakdown:
Section |  min time  |  avg time  |  max time  |%varavg| %total
---------------------------------------------------------------
Pair    | 1.2085     | 2.4808     | 4.4714     |  47.5 | 47.99
Bond    | 0.0058195  | 0.010223   | 0.017249   |   2.5 |  0.20
Neigh   | 0.099615   | 0.099846   | 0.10005    |   0.0 |  1.93
Comm    | 0.25605    | 2.2475     | 3.5175     |  49.9 | 43.47
Output  | 0          | 0          | 0          |   0.0 |  0.00
Modify  | 0          | 0          | 0          |   0.0 |  0.00
Other   |            | 0.3315     |            |       |  6.41

Nlocal:        47.0625 ave          78 max          27 min
Histogram: 4 5 1 4 4 10 2 1 0 1
Nghost:        1851.94 ave        1894 max        1799 min
Histogram: 1 1 6 2 4 2 3 7 2 4
Neighs:        4522.34 ave        9849 max        2099 min
Histogram: 5 6 5 6 6 2 1 0 0 1

Total # of neighbors = 144715
Ave neighs/atom = 96.092297
Ave special neighs/atom = 2.0066401
Neighbor list builds = 89
Dangerous builds = 0

# MD simulation
velocity all create 300.0 12345 rot yes dist gaussian
timestep 1.0
fix 2 all nvt temp 300.0 300.0 1

# Compute interaction energy
group WAT molecule <> 2 501
1500 atoms in group WAT
group MOL molecule 1
6 atoms in group MOL

compute w WAT group/group MOL pair yes
fix 3 all ave/time 10 5 100 c_w file outa

# Outputs
thermo 100 # Output thermodynamic data every nth step
#dump mf1 all xyz 10000 mol_*.xyz

# Run
run 1000000
Neighbor list info ...
  update every 2 steps, delay 10 steps, check yes
  max neighbors/atom: 10000, page size: 100000
  master list distance cutoff = 13
  ghost atom cutoff = 13
  binsize = 6.5, bins = 6 6 6
  4 neighbor lists, perpetual/occasional/extra = 3 1 0
  (1) pair hbond/dreiding/lj, perpetual, skip from (4)
      attributes: full, newton on
      pair build: skip
      stencil: none
      bin: none
  (2) pair lj/cut, perpetual, half/full from (4)
      attributes: half, newton on
      pair build: halffull/newton
      stencil: none
      bin: none
  (3) compute group/group, occasional, copy from (2)
      attributes: half, newton on
      pair build: copy
      stencil: none
      bin: none
  (4) neighbor class addition, perpetual
      attributes: full, newton on
      pair build: full/bin
      stencil: full/bin/3d
      bin: standard
Per MPI rank memory allocation (min/avg/max) = 10.54 | 10.61 | 11.08 Mbytes
Step Temp E_pair E_mol TotEng Press Volume 
    5042          300   -920.82119    15.751133    440.76568     1575.617    41402.763 
    5100    293.48714   -991.86112    195.99554    520.75271    685.89266    41402.763 
    5200    300.46939   -991.25234    172.02948    528.71862    1040.9742    41402.763 
    5300     310.6775   -1035.8951    142.85831    500.69946    1168.9505    41402.763 
    5400     296.4382   -1011.5938    149.88218    468.14547    570.11655    41402.763 
    5500    301.43564   -1083.9176    167.69115    436.04968    938.37302    41402.763 
    5600    301.29148   -1057.7357    162.20584    456.09957    978.72496    41402.763 
    5700    304.09557   -1069.7743    165.23468    459.66935    806.97763    41402.763 
    5800    304.12842   -1026.1833     173.6853    511.85834    715.37048    41402.763 
    5900    300.49361   -1024.2927    174.61336    498.37076    503.37162    41402.763 
    6000    294.38014   -1010.2883    177.20753     487.5436    365.21978    41402.763 
    6100    302.61469   -1030.3966    170.24586    497.41486    660.07807    41402.763 
    6200     309.1918   -1030.0363     172.7094    529.74436    416.50167    41402.763 
    6300    304.96219   -1026.5443    189.11777    530.67014   -45.795365    41402.763 
    6400    289.17207   -1031.0029    184.76334    451.02079   -159.81611    41402.763 
    6500     297.7472   -1053.8019    179.61479    461.54235    276.70784    41402.763 
    6600    307.11341   -1080.2227    184.07876    481.60339    337.43446    41402.763 
    6700    294.31705   -1019.9883    179.89003     480.2431    457.13447    41402.763 
    6800    302.22169   -989.15654    187.11753     553.7635    497.99289    41402.763 
    6900    297.77874    -1026.733    188.82147    497.95938    705.28197    41402.763 
    7000    300.09954   -1005.3324      190.894    531.84391    482.41874    41402.763 
    7100    301.38151   -1022.3543    190.51677    520.19586    178.38524    41402.763 
    7200    302.91891   -1036.0948    184.75881    507.59433    272.84877    41402.763 
    7300    293.50634   -1047.4457    189.33952    458.59822    317.74987    41402.763 
    7400    297.68034   -1046.4458    193.29499    482.27868    190.29627    41402.763 
    7500    303.74157   -1077.3195    189.12393     474.4253    401.73676    41402.763 
    7600    307.77642   -1010.4093    193.11573    563.42814    376.54962    41402.763 
    7700    305.97875   -1034.1522    203.00792    541.51287    269.70829    41402.763 
    7800    295.20538   -1042.3573    206.25825     488.2275   -62.295115    41402.763 
    7900    313.94162   -1022.4647    201.22511    587.13995    449.75555    41402.763 
    8000    303.53403   -1065.7234    201.71361    497.68001    145.49933    41402.763 
    8100    292.98355    -1074.878    216.09385    455.57497    431.28242    41402.763 
    8200    304.34207   -1094.8219    195.04765     465.5405   -29.533352    41402.763 
    8300    302.64308   -1047.7824    199.97335    509.88389    261.52184    41402.763 
    8400    298.38295   -1094.4534    213.34681     457.4749     386.8161    41402.763 
    8500    303.17329   -1107.5369    202.84611    455.38067    233.86864    41402.763 
    8600    293.54361    -1126.392    194.21802    384.69764    258.12245    41402.763 
    8700    308.77841   -1084.7007     204.9361     505.4521    678.65405    41402.763 
    8800    299.10361   -1075.1452    202.94261    469.61183    126.72638    41402.763 
    8900    295.82994   -1059.1857    225.48547    493.42817    694.12864    41402.763 
    9000    302.03788   -1085.6315    197.02356    466.36997    420.84438    41402.763 
    9100    287.99812   -1052.5962     226.3741    465.77183    248.05414    41402.763 
    9200    301.20747   -1045.8304    213.26644     518.6886    418.24535    41402.763 
    9300    286.67585   -1143.5624    201.22623    343.72589    286.79378    41402.763 
    9400    294.07393      -1122.2    203.71197    400.76265     870.7988    41402.763 
    9500    302.29197   -1123.0483    209.44128    442.51075    431.39883    41402.763 
    9600    300.40311   -1060.1626    206.45725    493.93877    414.29723    41402.763 
    9700    292.80575    -1074.516    209.27736    448.32282    351.80457    41402.763 
    9800    293.36831   -1041.2964    233.15187    507.94064    756.84457    41402.763 
    9900    292.41599   -1009.6775    214.56881    516.70426    440.10534    41402.763 
   10000    298.23007   -1008.8888    226.06081    555.06767    148.38926    41402.763 
   10100    300.46135   -1023.7043    212.53535    536.73648    275.26858    41402.763 
   10200    302.27105   -1017.8049    203.09551    541.31456    457.31993    41402.763 
   10300    306.56194   -1063.5049    232.68006    544.44856    412.19696    41402.763 
   10400    305.58748   -1090.6216    200.89339    481.17363    493.90149    41402.763 
   10500    309.49997   -1098.0604    224.95294    515.34622    538.81704    41402.763 
   10600    300.71226   -1083.7079    208.34182    473.66498    218.82487    41402.763 
   10700    301.31598   -1068.0232     229.3235    513.03963    311.86099    41402.763 
   10800    304.00089   -1075.4049    214.32091    502.70022    265.35307    41402.763 
   10900    310.73673   -1086.2668    232.43896    540.17413    320.17909    41402.763 
   11000    305.53366   -1077.0768    212.51102    506.09458    550.66826    41402.763 
   11100    302.09614   -1104.4021    225.44579    476.28295    639.23561    41402.763 
   11200    299.65445   -1080.4948    228.11651    491.90726    636.64685    41402.763 
   11300     306.1551   -1082.1191    229.00993    520.33904    529.07187    41402.763 
   11400    298.12757   -1063.8016    235.12917    508.76342     265.0805    41402.763 
   11500    295.76459   -1090.4169    234.51475    470.93301    54.424541    41402.763 
   11600    297.44859   -1038.5518    241.26153    537.09956    499.93182    41402.763 
   11700    298.85833   -1050.2891    241.26314    531.68812    372.07751    41402.763 
   11800     302.7372   -1044.1218    225.49982    539.49318    299.87642    41402.763 
   11900    292.86774   -1081.7126    243.80182    475.92881    170.84408    41402.763 
   12000    301.73847   -1090.6737    236.86304    499.82403    268.43603    41402.763 
   12100    296.43955   -1127.7453    226.71038    428.82822    5.3211063    41402.763 
   12200    305.66805     -1139.46     236.0817    467.88505    343.07689    41402.763 
   12300    290.83714   -1105.0327    241.03632     440.7337    123.84833    41402.763 
   12400    288.32241   -1080.3988    241.46878    454.51868    449.04127    41402.763 
   12500    299.14352   -1081.6861    246.59752     506.9049    135.12529    41402.763 
   12600     298.7374   -1089.9044    236.30145    486.56859    362.88029    41402.763 
   12700    303.30932   -1111.8809    243.85729     492.6581    317.57352    41402.763 
   12800    292.44692   -1101.7261    256.96722    467.19283    396.79391    41402.763 
   12900    296.28357   -1091.9326    247.06577    484.29651    135.48079    41402.763 
   13000    291.86493   -1078.6226     249.9619    480.68015    60.967229    41402.763 
   13100    294.86193   -1079.9036    240.08143    482.96355    263.33609    41402.763 
   13200    308.23602   -1081.1731    249.86951    551.47992    505.73916    41402.763 
   13300    303.92953   -1057.7931    249.36354    555.03449    431.94023    41402.763 
   13400    302.57157   -1116.0089    256.74069     498.1039    513.19174    41402.763 
   13500    306.21122   -1098.5726    253.32851    528.45596    212.83048    41402.763 
   13600     299.8941   -1122.2529    241.64045    464.74819    79.836976    41402.763 
   13700    295.88118   -1109.1272    251.42937    469.66036     511.3728    41402.763 
   13800    302.49976   -1097.1339    258.47207     518.3881    366.72057    41402.763 
   13900    296.81073   -1126.2666    258.91777    464.17947    454.97426    41402.763 
   14000    298.13263    -1106.862    256.76725    487.36373    405.82171    41402.763 
   14100     291.6549   -1136.4022    265.24801    437.24438      337.536    41402.763 
   14200    312.93524    -1128.734    259.50975    534.64055    740.01729    41402.763 
   14300    302.92373   -1080.1513    252.66905    531.46969    626.43086    41402.763 
   14400    294.63378   -1079.0245    271.00066     513.7384     488.2343    41402.763 
   14500    294.68318   -1127.3091     261.4723    456.14702    382.80944    41402.763 
   14600    296.78163   -1082.3298    264.47216    513.54012    824.72986    41402.763 
   14700    294.55151   -1085.0912    264.84341    501.14536    156.70826    41402.763 
   14800    294.21672   -1129.9601    251.79536    441.72652    458.91886    41402.763 
   14900    301.48096   -1103.2914    263.80786    512.99594    399.36187    41402.763 
   15000    302.71112   -1145.1065    262.81865    475.71029     223.6182    41402.763 
   15100    294.15841   -1151.8242      258.479     426.2845    134.21644    41402.763 
   15200    305.84841   -1164.1607    272.34116    480.25289    30.907975    41402.763 
   15300    302.16348   -1128.1017    250.86721    478.30691    105.65171    41402.763 
   15400     305.1053   -1199.3475    263.58357    432.97474    88.711026    41402.763 
   15500    296.97733   -1173.8732     260.0484    418.45089   -19.242558    41402.763 
   15600    307.76398   -1138.1978    252.53731    495.00543    129.39115    41402.763 
   15700     311.0833   -1125.1876    259.08322    529.45233    588.79861    41402.763 
   15800    299.96619   -1154.3986    257.65709    448.94257     228.1405    41402.763 
   15900    297.43222   -1159.9514    252.14906    426.51399    461.16204    41402.763 
   16000     305.4664   -1182.5426    264.57892    452.39497    915.32098    41402.763 
   16100    301.71809   -1150.1919    263.88306    467.23443     333.4791    41402.763 
   16200    302.24954   -1108.3852    264.58213    512.12436    101.48715    41402.763 
   16300     308.1942   -1127.1842    256.39597    511.80766    262.88317    41402.763 
   16400    307.93223   -1125.9094    268.29748    523.80877   -24.717781    41402.763 
   16500    296.40887   -1142.1237    254.21811    441.81992    55.134702    41402.763 
   16600    297.89399    -1143.876    261.56423    454.07615   -162.11257    41402.763 
   16700     299.8397   -1135.6254    268.53323    478.02449   -171.39533    41402.763 
   16800    291.38652     -1118.68    251.00039    439.51503   -80.613578    41402.763 
   16900    299.55415   -1106.3452    272.70828    510.19873   -121.16387    41402.763 
   17000    296.12558   -1103.2469    266.10253    491.31022    191.52009    41402.763 
   17100    296.46092   -1111.1654    270.59255    489.38613    118.92881    41402.763 
   17200    298.69753   -1112.8847    280.38668    507.49471      717.996    41402.763 
   17300    296.23071   -1159.1928    256.51055    426.24399    456.23597    41402.763 
   17400    301.53039    -1121.321     267.2208    498.60104    903.17687    41402.763 
   17500    299.71005   -1124.8881    264.68757    484.33443     716.5622    41402.763 
   17600    306.38161   -1110.6983    276.88351    540.64964    439.63907    41402.763 
   17700    309.13256   -1151.2401    263.51918    499.08456    877.95862    41402.763 
   17800    294.47248   -1143.6932    271.61916    448.96456    883.72059    41402.763 
   17900     289.4479   -1161.5935    280.99558    417.89984    866.83291    41402.763 
   18000    313.05982   -1135.7344    277.85561    546.54481    391.77367    41402.763 
   18100    299.82782   -1125.0758    264.88232    484.86979     675.1968    41402.763 
   18200    302.33368   -1128.3783    294.67078    522.59742    567.75001    41402.763 
   18300    304.09923   -1129.5951    280.57878    515.20906     65.59955    41402.763 
   18400     292.1917   -1153.0592    286.59267    444.34021     189.3319    41402.763 
   18500    307.08826   -1164.8668    272.77099    485.53872    440.68312    41402.763 
   18600    298.14028   -1190.8623    272.36405    418.99458   -36.236736    41402.763 
   18700    296.18964   -1205.8862    276.09277    398.94855   -133.46772    41402.763 
   18800    289.79872   -1191.3802    274.51335    383.20471   -447.14588    41402.763 
   18900    290.96315   -1175.2743    266.30646    396.32748    361.64068    41402.763 
   19000    297.58196   -1154.4589    285.18767    465.71689   -271.29117    41402.763 
   19100    305.23591   -1180.3732    273.53138    462.48279    162.07885    41402.763 
   19200    301.09596   -1187.5479    265.84656    429.05104    135.90816    41402.763 
   19300    295.13371   -1156.7377    278.39174    445.65906   -14.364273    41402.763 
   19400    294.50042   -1160.9039     272.4239    432.68398   -221.98737    41402.763 
   19500    302.98043   -1164.9085    286.19441    480.49219    283.01965    41402.763 
   19600     304.5416   -1164.6537    279.65898    481.21521   -9.5462004    41402.763 
   19700    297.61672   -1168.1813    287.34774    454.31056   -10.819528    41402.763 
   19800    297.63765   -1143.6638    270.73518    462.30933    109.99625    41402.763 
   19900    305.03949   -1153.4247    278.26917    493.28796     454.7496    41402.763 
   20000     307.5527   -1142.1561    272.62617    510.18816    276.82625    41402.763 
   20100    288.94829   -1142.6223    286.97242    440.60658    440.34477    41402.763 
   20200    300.17042   -1155.6303    282.64737    473.61738    486.91432    41402.763 
   20300    306.45326   -1157.7095    272.34364    489.41999    557.83358    41402.763 
   20400    295.38539    -1167.181    262.50521    420.45823    612.65699    41402.763 
   20500    296.98192   -1156.9911     287.9469    463.25208    620.89325    41402.763 
   20600    301.89473   -1154.1355    284.51707    484.71727    520.36952    41402.763 
   20700    293.58242   -1119.6894    297.09778    494.45406     643.1178    41402.763 
   20800    294.98262   -1100.0893    286.05073    509.28863    448.78947    41402.763 
   20900    302.37339   -1092.2973    282.58454    546.77025    621.02501    41402.763 
   21000    294.53271   -1132.7458    282.45651    471.01958    593.73691    41402.763 
   21100    303.93659   -1113.9442    296.84238    546.39388    516.79886    41402.763 
   21200    299.55263    -1153.615    282.76939    472.98316    366.89934    41402.763 
   21300    300.57188   -1080.7361    284.39835    552.06347    333.18198    41402.763 
   21400    302.87868   -1124.0776    295.04096    529.71323     453.4879    41402.763 
   21500     290.5056   -1092.7128    297.09518    507.62515    346.11656    41402.763 
   21600    294.27882   -1093.4996    282.83447    509.50477    516.44621    41402.763 
   21700    310.26666   -1116.1459    293.99506    569.74232    324.78611    41402.763 
   21800    300.39699   -1062.0995    291.64107    577.15824    272.44479    41402.763 
   21900    296.62504    -1057.188    287.81392    561.32123    309.19092    41402.763 
   22000    297.27215   -1079.1432    290.70464    545.15968    206.19377    41402.763 
   22100    307.91703   -1079.2047    287.96901    590.11677    91.017865    41402.763 
   22200    294.97268   -1047.1199    301.28131    577.44397    376.06824    41402.763 
   22300    315.03509   -1083.7366    289.96375    619.51204    823.74921    41402.763 
   22400    288.02405   -1060.4862     304.0808    535.70477    233.71307    41402.763 
   22500    299.46946   -1067.8219    301.70608    577.33983    201.49257    41402.763 
   22600    300.58171   -1120.2685    276.20362     504.3805   -168.43756    41402.763 
   22700    286.64875   -1109.6505    305.64161     481.9315     298.0162    41402.763 
   22800    300.56295   -1110.5945    294.62737    532.39411    463.75446    41402.763 
   22900    296.82496    -1122.069    303.79899    513.32207    179.02021    41402.763 
   23000    306.41808   -1114.1195    284.79984    545.30833    379.10452    41402.763 
   23100    299.05172    -1138.017    298.42611    501.99076    566.38491    41402.763 
   23200    306.20332   -1131.0967    292.25355    534.82139    432.88449    41402.763 
   23300    303.45958   -1137.1402    286.75265    510.96831    285.94901    41402.763 
   23400    304.36317   -1203.5928    284.88981    446.70646    201.28628    41402.763 
   23500    305.36098   -1225.2038    275.35004    420.03199    467.61699    41402.763 
   23600    302.66929   -1193.5582    285.20925    449.46154     433.9907    41402.763 
   23700     309.9642   -1175.5829    287.33865    502.29207    325.90045    41402.763 
   23800     294.9408   -1185.7505    290.05591    427.44493   -212.74723    41402.763 
   23900    302.75165   -1165.2776    303.53756    496.43989   -297.60554    41402.763 
   24000    302.35081   -1216.3625     288.9018    428.92102    211.34428    41402.763 
   24100    299.88195   -1164.4337    294.61975    475.49217    182.38625    41402.763 
   24200    300.84121   -1186.1166    282.17935    445.67228    58.288458    41402.763 
   24300    302.13991   -1173.3803    283.87583    465.93112     252.1951    41402.763 
   24400    290.27724   -1163.7207    308.80717    447.30471    366.85147    41402.763 
   24500    307.77827   -1173.4093    310.53976    517.86045    463.95297    41402.763 
   24600    292.41755   -1183.5552    295.30276    423.56748    298.12259    41402.763 
   24700    303.10807   -1179.8836    307.37417    487.26946    313.55363    41402.763 
   24800    294.71589   -1158.0939    308.90253    472.93927    66.082538    41402.763 
   24900     294.4274   -1174.0375    308.96209    455.76103    442.83768    41402.763 
   25000    306.34408   -1127.1227     301.8961    549.06945    118.07403    41402.763 
   25100    307.58712   -1130.3197      314.251    563.80377    274.30456    41402.763 
   25200    289.94361   -1175.0584    303.49024     429.1534    164.70902    41402.763 
   25300    307.32259    -1146.969    297.08775    528.80453    141.20199    41402.763 
   25400    301.76226    -1173.522    299.13485    479.35425    353.78259    41402.763 
   25500    289.09787    -1126.675    311.33929    481.59178    166.96381    41402.763 
   25600    289.05354   -1172.5345    322.37095    446.56513   -113.42014    41402.763 
   25700    305.18128     -1156.24    323.80525    536.64477   -213.89231    41402.763 
   25800    295.02644   -1142.4293    332.23236    513.32689   -192.12496    41402.763 
   25900     298.6597   -1132.6361    305.27803    512.46492   -374.22381    41402.763 
   26000    305.99799   -1135.6997    316.60567    553.64939    57.587768    41402.763 
   26100    294.11643   -1158.3308    315.76004    476.87059   -146.33389    41402.763 
   26200    298.77156   -1185.5698    326.99389    481.74891   -392.84346    41402.763 
   26300    303.74315   -1147.7631    320.70594    535.57081    183.11924    41402.763 
   26400    295.30423    -1156.375    330.95178    499.34667   -224.92102    41402.763 
   26500    303.41104   -1149.2402    310.03134    521.92924   -34.970735    41402.763 
   26600    284.90903   -1185.6357    329.03071    421.53082    91.324036    41402.763 
   26700    292.91549   -1224.9542    307.67319    396.77276    381.74123    41402.763 
   26800    306.43788   -1163.3344     333.9715    545.35393    537.02116    41402.763 
   26900    301.22446   -1151.7111    327.86439    527.48211    698.71565    41402.763 
   27000    291.19918    -1153.737    319.81687    472.43409    430.38722    41402.763 
   27100    293.79187   -1157.8312    329.22137    489.37549    427.26936    41402.763 
   27200    301.28962    -1209.818    322.01589    463.81896    251.78713    41402.763 
   27300    294.30326   -1216.1101    311.26058    415.43001    85.828736    41402.763 
   27400    293.50153   -1226.4401    315.93319    406.17592    225.56726    41402.763 
   27500    294.19827   -1208.4924    309.60389    420.92001    45.398562    41402.763 
   27600    304.63501   -1224.8909    314.93481    456.67287   -296.86556    41402.763 
   27700    295.61964   -1174.6311    321.30644    472.86029    156.07244    41402.763 
   27800    297.38167   -1155.4598    313.83265    492.46251   -134.47939    41402.763 
   27900    305.51139   -1208.2946    330.52538    492.79123    219.77348    41402.763 
   28000    304.26068   -1188.6122    326.23454    502.57196   0.80076733    41402.763 
   28100    295.39163   -1159.6594    327.52405    493.02662    171.36629    41402.763 
   28200    286.46751   -1221.4632    330.31601     393.9802    132.75208    41402.763 
   28300     293.9251   -1201.8198    311.95313    428.71636    403.04053    41402.763 
   28400    303.82458   -1212.1905     317.4835    468.28631    275.62514    41402.763 
   28500    292.97225   -1193.9368    312.62633    432.99796   -30.414891    41402.763 
   28600    302.02267   -1173.2417      332.914    514.58204    484.72072    41402.763 
   28700    292.97205   -1164.4504     335.8642    485.72135   -53.795269    41402.763 
   28800    311.42788   -1181.6027    336.81824    552.31812    546.68107    41402.763 
   28900    292.73354   -1219.5082    326.25727    419.98662   -43.960482    41402.763 
   29000    299.06889   -1238.7219    335.56344    438.50018    90.294929    41402.763 
   29100    305.70312   -1230.5532    322.63627    463.50372   -168.74994    41402.763 
   29200    291.92812   -1221.3321    343.37507    431.66723    -37.43608    41402.763 
   29300    297.18944   -1243.1445    315.61007    405.69282   -740.56705    41402.763 
   29400    296.92938   -1206.5079    331.78656     457.3393   -203.53996    41402.763 
   29500    297.73269   -1199.5214    335.81353    471.95644    -216.1504    41402.763 
   29600    299.88601   -1235.2365    326.86801    436.95589   -21.760623    41402.763 
   29700    300.74425   -1180.1084    333.41252    502.47861   -179.68884    41402.763 
   29800    303.02879    -1189.022    330.89271    501.29399   -77.981185    41402.763 
   29900    299.86435   -1220.5096    326.64006    451.35767   -615.23033    41402.763 
   30000     306.3215   -1197.5475    341.01059    517.65778   -177.13504    41402.763 
   30100     310.4176   -1195.1834    332.40791    529.79482    104.76521    41402.763 
   30200     299.1865   -1185.8654     339.9721    496.29296    385.48349    41402.763 
   30300    305.13018   -1233.1152     307.7015    443.43663    352.02429    41402.763 
   30400    294.79109   -1257.4933    320.50178    385.47645    1007.9676    41402.763 
   30500     297.7159   -1254.1406    347.59711    429.04551    354.04123    41402.763 
   30600    305.79178   -1206.6608    369.22471    534.38221    539.12726    41402.763 
   30700    306.05992   -1192.7256      339.831    520.12664    599.60112    41402.763 
   30800    291.99976     -1184.15    336.48781    462.28355    172.77331    41402.763 
   30900    298.16566   -1193.8062    324.10289    467.90338    144.71206    41402.763 
   31000    294.63981   -1189.8515    331.98596    463.92375    406.95394    41402.763 
   31100     306.5045   -1238.4503    336.52414    473.08958     461.3661    41402.763 
   31200    303.58081   -1225.1317    353.15975    489.92778     349.2226    41402.763 
   31300    306.82485   -1255.4624    331.16291    452.15333    245.60397    41402.763 
   31400    303.64191   -1259.7677    336.19579    438.60186    434.95744    41402.763 
   31500    294.09802   -1231.6288    311.02154     398.7515   -192.34932    41402.763 
   31600    291.71544   -1247.1518    330.11809    391.63647    165.98275    41402.763 
   31700    300.36228   -1257.7199     343.8949    433.63599   -93.517837    41402.763 
   31800    285.76069   -1255.8296    335.37568    361.50259   -342.09384    41402.763 
   31900    293.76343   -1290.6023     357.9522     385.2076    191.16189    41402.763 
   32000    304.96809   -1262.9116    332.57117    437.78281    -377.7361    41402.763 
   32100    315.26496   -1231.1282    341.11594    524.30392   -151.33195    41402.763 
   32200    295.67211   -1233.5386    348.21786    441.09962    -59.40175    41402.763 
   32300    299.32298    -1292.107    341.66603    392.35758    459.58357    41402.763 
   32400      284.849   -1237.6633    345.17975    385.38303    342.89218    41402.763 
   32500    289.32024   -1245.2999    358.76421    411.38943    223.07769    41402.763 
   32600     297.9822   -1237.0987     361.3402    461.02518    365.04053    41402.763 
   32700    305.48268   -1254.1426    347.32829    463.61742    266.70674    41402.763 
   32800    297.34724   -1277.3418    336.30027    392.89359    425.75589    41402.763 
   32900    301.40663   -1289.1179    330.28358    393.31173    359.54431    41402.763 
   33000    302.01787   -1229.3699    334.31662    459.83488    121.80506    41402.763 
   33100    295.88057   -1183.6684    351.17197    494.85906    425.50043    41402.763 
   33200    299.03883   -1187.3491    346.99904     501.1737   -96.166612    41402.763 
   33300    299.84124   -1213.4068    354.17417    485.89093   -171.86232    41402.763 
   33400    302.60991   -1210.9871    347.75279    494.30978   -44.832481    41402.763 
   33500    309.83744   -1231.2468    348.71673    507.43764    567.24361    41402.763 
   33600    286.88404   -1249.2386    351.07209    388.82942    134.69788    41402.763 
   33700    297.71508    -1204.092    352.24102    483.73429    349.09177    41402.763 
   33800    294.10277   -1249.5542    358.58171    428.40757    292.64266    41402.763 
   33900    288.35369   -1238.8908    340.48288    395.18105    147.73205    41402.763 
   34000    296.69012    -1238.422    350.10943    442.67463   -81.539528    41402.763 
   34100    295.21505   -1210.3428     343.3889    457.41595    305.82712    41402.763 
   34200    297.83472   -1205.1731    351.17226    482.12122    338.54771    41402.763 
   34300    301.50574   -1187.4992    356.21013    521.30158    150.69567    41402.763 
   34400    293.69315   -1178.6071    363.05479    501.99015    46.462098    41402.763 
   34500    297.90181   -1192.2852    341.81242    485.95021     339.5453    41402.763 
   34600    295.46507   -1171.6112    360.98137    514.86167    352.04647    41402.763 
   34700    302.47322   -1182.6596    340.15818     514.4295     578.8386    41402.763 
   34800    308.29853   -1205.9875    372.40118    549.47756    643.78331    41402.763 
   34900    297.47641   -1190.7364    361.56364    505.34187    346.17397    41402.763 
   35000    301.67355   -1242.6986    367.43071    478.07561    483.10294    41402.763 
   35100    303.60433    -1181.349     354.3191    534.97534    506.59465    41402.763 
   35200    297.88779   -1204.3614    357.18796     489.1867    253.00772    41402.763 
   35300    296.62425   -1216.5887     345.3469    459.44987    368.05454    41402.763 
   35400    304.10976   -1211.9586     355.0491     507.3631    510.20515    41402.763 
   35500    292.78256   -1218.1072    389.60904    484.95923    146.29307    41402.763 
   35600    303.47294    -1257.802     343.5781    447.19189    172.84883    41402.763 
   35700     302.0204   -1252.2554    343.89537    446.53951   -79.951757    41402.763 
   35800    294.45183   -1201.7745    341.97452    461.14597    14.556239    41402.763 
   35900    307.13891    -1263.252    343.42256    458.03233    214.39069    41402.763 
   36000    301.66628   -1212.9925    352.10898    492.42735   -51.777199    41402.763 
   36100    294.12492   -1231.6534    366.27356    454.09955   -123.32716    41402.763 
   36200    292.99462   -1199.2137    360.80497    476.00003    167.61419    41402.763 
   36300    289.97129   -1219.8591    372.87265    453.85936    85.527365    41402.763 
   36400    298.29947   -1264.9465    352.87161    426.13203   -151.55692    41402.763 
   36500    295.65618    -1258.861    351.63835    419.12623   -488.30491    41402.763 
   36600    299.02571   -1243.0746    348.33143    446.72175   -38.335146    41402.763 
   36700    294.50357   -1271.8859     366.6915    415.98369    181.59969    41402.763 
   36800    295.64852   -1278.8331    354.10767    401.58904   -45.707985    41402.763 
   36900    308.38171   -1277.1398    345.78302    452.08032   -96.949943    41402.763 
   37000    295.19247   -1274.2738    355.32964    405.32447   -400.00678    41402.763 
   37100    299.76192   -1247.4986    368.33693      465.606   -304.87445    41402.763 
   37200     290.3439    -1270.551    361.72494    393.69129   -106.41847    41402.763 
   37300    301.18898   -1266.2729    367.05188    451.94859    -157.2457    41402.763 
   37400    313.86417   -1291.7804    361.19658    477.44827    109.11224    41402.763 
   37500    291.08375   -1311.4958    367.70868    362.04929    213.08548    41402.763 
   37600    304.78016   -1282.1185    347.30932    432.47094    423.73617    41402.763 
   37700    300.22881   -1256.1371    366.34025    457.06538   -55.790236    41402.763 
   37800    292.22708   -1284.7789     364.7871    390.97364   -102.98463    41402.763 
   37900    297.01878   -1244.6121    364.98291    452.83242   -62.625812    41402.763 
   38000    307.17322   -1278.8365      369.736     468.9151   -127.84498    41402.763 
   38100    298.13671   -1244.5042     351.7256    444.69815   -134.79972    41402.763 
   38200    294.85179   -1227.3625    375.42868    470.80646   -122.22618    41402.763 
   38300    301.45762   -1227.1471    353.84345     479.0711   -400.23139    41402.763 
   38400     296.9659   -1242.9715    348.03581    437.28868    147.76489    41402.763 
   38500    299.39035   -1218.7841    354.97508    479.29179    306.12541    41402.763 
   38600    292.64897    -1245.894    383.39986      450.364   -203.51859    41402.763 
   38700    291.02107   -1242.2955    361.14833    424.40798    18.895334    41402.763 
   38800    292.13815   -1189.1767    383.27309    504.66298   -429.93635    41402.763 
   38900    288.52761   -1215.0878    366.77863       446.06    72.650523    41402.763 
   39000    302.40062    -1190.153    365.54944    532.00164    544.40482    41402.763 
   39100    298.70047   -1216.0102    378.37139    502.36708    804.79941    41402.763 
   39200     300.6925   -1246.2411    351.89653    454.59782    730.72224    41402.763 
   39300    299.66661   -1214.2289    377.27792    507.38919    526.21986    41402.763 
   39400    311.45721   -1215.8508    372.40366    553.78696    590.16152    41402.763 
   39500     294.8377   -1215.6114    374.85007    481.91578    512.46789    41402.763 
   39600    297.82198    -1218.665    355.66029    473.06012     309.8371    41402.763 
   39700    301.77556   -1196.2603    362.51649    520.05734    308.76175    41402.763 
   39800    304.55577   -1219.1462    373.21023    520.33743    97.954975    41402.763 
   39900    294.72393   -1196.5158    365.01113    490.66197    541.21085    41402.763 
   40000    301.85902   -1198.6322    377.32654    532.86988    242.51975    41402.763 
   40100    301.17335   -1191.0602    353.47223    513.51157   -13.829738    41402.763 
   40200     297.0704   -1206.0387    361.21746    487.87194   -46.787757    41402.763 
   40300    297.81495   -1222.3197    348.09788    461.81149    51.042619    41402.763 
   40400    300.00966   -1186.5753    356.82953    516.13327    343.64885    41402.763 
   40500    308.83509   -1227.6879    349.52965    507.31277    232.69051    41402.763 
   40600    302.10017   -1245.6344    389.45438     499.0773     207.7738    41402.763 
   40700    301.36433   -1283.7078    335.81785    404.06627    290.71392    41402.763 
   40800    291.66472   -1260.5293    365.10522     413.0186     44.53816    41402.763 
   40900    301.70115    -1239.452    373.95081    487.96612    -108.2055    41402.763 
   41000    304.62677   -1266.8445    376.39756    476.14503   -604.72929    41402.763 
   41100    299.58464   -1224.1465    354.31798    474.14387   -97.028897    41402.763 
   41200    293.57703   -1250.3178    346.97418    413.67792   -397.23182    41402.763 
   41300     293.3705   -1273.5277    345.10115    387.66849   -268.53841    41402.763 
   41400    303.97649   -1275.1965    393.15544    481.63365    106.65908    41402.763 
   41500    304.80612   -1252.4692    387.04643    501.97379    205.97656    41402.763 
   41600    295.09539   -1214.3445    389.88403    499.37266    122.57463    41402.763 
   41700    302.51831   -1224.5907    402.05111     534.5936    337.08277    41402.763 
   41800    296.99937   -1272.0003    391.07147    451.44575    434.50554    41402.763 
   41900    304.34272   -1241.9805    364.18225    487.51944    149.36362    41402.763 
   42000    294.14715   -1199.2583    354.61884    474.93969   -151.37085    41402.763 
   42100     298.1754   -1233.3791    364.47547    468.74668   -49.488398    41402.763 
   42200    304.30647   -1230.2444      362.605    497.51564   -84.829803    41402.763 
   42300    319.11642   -1216.4356    373.03924    588.19795     484.4416    41402.763 
   42400    290.62164    -1207.586     366.4045    462.58184    238.88091    41402.763 
   42500    306.10192   -1214.6979    364.41513    522.92692    545.18476    41402.763 
   42600    289.38254    -1220.642    380.74365    458.30622    356.59918    41402.763 
   42700    306.69713   -1259.6015    372.67875    488.95714    224.73931    41402.763 
   42800     312.3164   -1215.2198    398.41132    584.28003    440.55679    41402.763 
   42900    305.21798   -1276.8005    362.28951    454.73319    257.00743    41402.763 
   43000    293.77563   -1255.1644    400.37064    463.11871   -201.53757    41402.763 
   43100    299.11375   -1254.3942    391.72958    479.19531    -322.2743    41402.763 
   43200    287.33616   -1306.7732    354.88199    337.13308   -407.15844    41402.763 
   43300    306.34556   -1279.9834    377.99653    472.31577   -348.35245    41402.763 
   43400    301.14277   -1260.6857    368.05266     458.3293    -405.5301    41402.763 
   43500    304.74507   -1251.8971      376.702     491.9276   -94.087029    41402.763 
   43600    306.58035   -1228.2147    400.76771    547.90901    234.20463    41402.763 
   43700    299.53551   -1257.9343    390.89462    476.71234    163.55341    41402.763 
   43800    305.74221   -1269.0082    370.62477    473.21259    455.06816    41402.763 
   43900    294.58808   -1286.5012    379.25978    414.31581    295.22465    41402.763 
   44000    311.71175   -1268.2658    375.40914    505.51944    364.29423    41402.763 
   44100    301.22613    -1309.691    374.83959    416.48484    89.618034    41402.763 
   44200    288.71322    -1257.904    376.75333    414.05119   -230.67236    41402.763 
   44300     300.4444   -1250.5624    390.72039    487.98735     216.6642    41402.763 
   44400     308.3772    -1272.318    374.44531    485.54418   -170.69952    41402.763 
   44500    294.89464    -1282.397    378.26468    418.80018   -138.19874    41402.763 
   44600    302.24185   -1235.9464    395.62113    515.56768   -161.21106    41402.763 
   44700     308.1772      -1263.7    376.56376    495.38337     77.22391    41402.763 
   44800     298.4837   -1237.0005    382.13885     484.1718   -388.29724    41402.763 
   44900    295.31638   -1238.4722    375.10824    461.46047   -5.1501993    41402.763 
   45000    303.40804   -1205.6148    379.32143    534.83122   -76.297514    41402.763 
   45100    302.54888   -1226.2561     386.5341    517.54834    71.657543    41402.763 
   45200    290.51671   -1234.2994    378.74803    447.74124    -244.4825    41402.763 
   45300    301.66345   -1213.8154    404.59707    544.07981    -350.3019    41402.763 
   45400    302.64414   -1279.0321    409.55252    488.21805   -204.74369    41402.763 
   45500    307.30224   -1257.1479    378.17736    499.62388   -103.58057    41402.763 
   45600    297.94925   -1232.2484    363.77916    468.16663     -334.856    41402.763 
   45700    301.96341   -1285.1006    381.77407    451.31725   -132.14863    41402.763 
   45800    298.51801   -1241.3519    359.38893    457.22437    60.731207    41402.763 
   45900    298.49702   -1270.5892    374.34228    442.84625   -404.71299    41402.763 
   46000    306.01017   -1269.1051    366.09524    469.78822    40.583364    41402.763 
   46100    295.02243   -1204.5614     385.2956    504.23994   -157.69768    41402.763 
   46200    296.71844   -1213.7505    400.46812    517.83189    95.044367    41402.763 
   46300    300.09182    -1209.168    379.78611    516.86579    468.83165    41402.763 
   46400    298.30965   -1210.8397     387.6928    515.10572    152.71505    41402.763 
   46500    313.71507   -1210.1527    389.15836    586.36887    523.49191    41402.763 
   46600    302.62138   -1222.5193    392.65593     527.7322    461.59932    41402.763 
   46700    302.62768   -1225.9096    397.23756    528.95175    237.82135    41402.763 
   46800     295.4634   -1243.1478    394.02278    476.35898    116.80244    41402.763 
   46900    312.58223   -1248.7365    372.00589    525.55053    258.88337    41402.763 
   47000    305.73639   -1282.6049    386.00915    474.97415   -120.78406    41402.763 
   47100    297.08939   -1286.3814    380.11063    426.50758   -280.97096    41402.763 
   47200     288.8302   -1264.3569    377.16035    408.53018   -203.94903    41402.763 
   47300    304.94912   -1271.4499    383.48381    480.07198   -108.61443    41402.763 
   47400    307.88141   -1255.6689    370.43156    495.95531   -77.384865    41402.763 
   47500    302.51778   -1249.9013    377.15204    484.38152   -208.77694    41402.763 
   47600    285.92599   -1246.8021    380.71982    416.61572    511.30562    41402.763 
   47700    302.07354   -1201.2358    370.87341    524.77551    151.20256    41402.763 
   47800    297.15773    -1287.325    374.47145     420.2314    304.54914    41402.763 
   47900    290.20938   -1258.1478    373.23465    417.00068    378.96698    41402.763 
   48000    294.87765   -1267.4051    377.11965    432.57079   -92.532325    41402.763 
   48100    294.78202   -1259.0591    389.48526     452.8534    125.71602    41402.763 
   48200    307.41512   -1240.0732    374.21236    513.23998    451.30914    41402.763 
   48300    285.22584   -1271.1869    402.44872     410.8189    251.63355    41402.763 
   48400    295.33556   -1302.3904    397.61216    420.13231    546.46115    41402.763 
   48500    298.52804   -1296.1076    383.75545    426.88022    8.5095756    41402.763 
   48600    299.15383    -1296.926    393.75299    438.86672   -411.96081    41402.763 
   48700    291.54871    -1255.235    391.47849    444.16574   -595.16576    41402.763 
   48800    304.81373   -1238.3933    370.41017    499.44761   -152.89847    41402.763 
   48900    297.39269   -1256.8901    378.28052    455.52947   -188.57214    41402.763 
   49000    305.93904   -1244.6843    387.68614    515.48088    74.892281    41402.763 
   49100    289.38385   -1292.9752    394.66823    399.90343   -170.13406    41402.763 
   49200    309.73104   -1292.6125    373.60385     470.4817    75.267819    41402.763 
   49300    294.81401   -1297.5814    380.91168    405.90103   -266.85807    41402.763 
   49400    300.67864   -1291.3576    369.28407    426.80668     -236.354    41402.763 
   49500    297.05562   -1260.4968    374.99791    447.12795   -184.22206    41402.763 
   49600    290.64182    -1262.961    357.71329    398.60613    29.000458    41402.763 
   49700    291.35512   -1209.0603    384.42139    482.41485   -75.814762    41402.763 
   49800     298.1681   -1275.3869    376.47226    438.70294   -221.74477    41402.763 
   49900    290.36491   -1276.5113    382.72559     408.8259   -137.57828    41402.763 
   50000    299.56806    -1275.908    379.35265    447.34264   -13.151861    41402.763 
   50100    294.44185    -1284.851    391.93431    427.98451   -165.61228    41402.763 
   50200    297.18696   -1249.9827    379.85743     463.0908   -106.80918    41402.763 
   50300    293.98073    -1274.126    396.46963    441.17616   -333.65455    41402.763 
   50400     288.3147   -1257.6001    360.03327    395.84722    39.153055    41402.763 
   50500    297.17811   -1258.7409    400.92628    475.36184   -270.77828    41402.763 
   50600    297.00192   -1265.6775    378.79432     445.5028    243.71632    41402.763 
   50700    292.28829   -1300.2606    365.36235    376.34177   -107.93299    41402.763 
   50800     299.3944   -1268.1834    361.92404    436.85952    426.75946    41402.763 
   50900    296.70786   -1245.8229    408.34443    493.58836    75.781663    41402.763 
   51000    289.50494   -1272.1668     378.9194    405.50629   -587.74898    41402.763 
   51100    306.23641   -1317.8011    407.94715    463.95908    63.902669    41402.763 
   51200    302.88965   -1289.5623    404.94205    474.17882   -279.06602    41402.763 
   51300    300.88314    -1304.641    403.55935    448.71591      311.944    41402.763 
   51400    299.75242    -1307.155    353.04692    390.61697    311.87016    41402.763 
   51500     301.5029   -1281.6196    385.84085    456.79918    249.66795    41402.763 
   51600    302.45956   -1302.1595    400.61665    455.32681   -73.748663    41402.763 
   51700    298.45579   -1268.2153    363.66598     434.3589   -290.62965    41402.763 
   51800    301.31944   -1232.8367    382.31325    501.23144    104.81869    41402.763 
   51900    298.36254    -1256.437     383.7786    465.83147   -21.281064    41402.763 
   52000    302.94838   -1271.9536    388.19257    475.30153    -90.76116    41402.763 
   52100    304.61225   -1277.8864    378.50017    467.14066   -643.12827    41402.763 
   52200     302.4363   -1256.1338    394.60328    495.23477   -534.42191    41402.763 
   52300    310.08274   -1295.1444    385.25627    481.17997    -482.6455    41402.763 
   52400    308.41642    -1307.538    384.85869    460.91351   -372.43961    41402.763 
   52500    298.90664   -1256.8387    389.06727    473.15934   -341.21344    41402.763 
   52600    294.65858   -1294.1626    361.74603    389.45693    -144.9794    41402.763 
   52700    296.30807   -1308.0462      401.967    423.19409    -364.5444    41402.763 
   52800    313.13743   -1273.4989    396.70582    527.97878     334.0814    41402.763 
   52900    300.79181    -1275.642    384.61515    458.36102    192.13955    41402.763 
   53000    305.33522   -1268.7875    415.77333    516.75601    479.85523    41402.763 
   53100    298.30913    -1288.606    374.85185    424.49612   -111.47938    41402.763 
   53200    291.51328   -1282.5171    392.25192    417.49813    104.59962    41402.763 
   53300     303.0715   -1265.2007    423.98493    518.39909    149.06368    41402.763 
   53400    305.54459   -1271.3374    386.39954     485.7716    174.75839    41402.763 
   53500     291.5259    -1293.497    405.60861    419.93156    415.65214    41402.763 
   53600    300.09829   -1284.5635    418.75135    480.46458    -275.9669    41402.763 
   53700    304.14798   -1277.8739    381.29851    467.86872   -59.725182    41402.763 
   53800    295.82797   -1299.3224    380.55023    408.34738    92.176223    41402.763 
   53900    307.61184   -1317.5237    379.03708    441.49671   -398.31972    41402.763 
   54000    294.74081   -1323.0925    392.28963    391.43954     184.2468    41402.763 
   54100    310.45811   -1296.4037    397.62707    493.97541    324.46809    41402.763 
   54200    298.33454   -1280.6691    387.19316    444.88837   -200.88881    41402.763 
   54300    291.66274    -1230.586    395.40117      473.249   -121.00972    41402.763 
   54400    296.31353   -1260.2961    406.57548    475.57717   -470.87302    41402.763 
   54500    293.10141   -1248.2174    416.25742    482.92783   -417.36645    41402.763 
   54600      302.143   -1252.0767    391.02305    494.39584   -188.41125    41402.763 
   54700    297.43924   -1298.7175    405.27909    440.90944   -271.92627    41402.763 
   54800    308.87149   -1270.1002    405.92049     521.4546   -381.51553    41402.763 
   54900    307.33895   -1239.0137    395.37885    535.12432    -185.6944    41402.763 
   55000    298.19479   -1247.4644    393.22101    483.49393   -39.411235    41402.763 
   55100    290.34605   -1194.9679    395.69037    503.24946    361.57739    41402.763 
   55200    299.43616   -1225.0412    397.47314    515.73824    196.96308    41402.763 
   55300    299.79411   -1297.7262    400.26315    447.44904    28.781448    41402.763 
   55400    303.22216   -1272.5759    390.82151    478.53636    215.91366    41402.763 
   55500    313.36847   -1297.8448    386.21579    494.17928    445.32451    41402.763 
   55600    296.58583   -1283.8688    393.60687    440.25742    272.35644    41402.763 
   55700    301.41739    -1282.164    397.18176    467.21207    372.47766    41402.763 
   55800    302.49549   -1263.9387    379.53806    472.63022     297.1234    41402.763 
   55900     304.2119   -1261.9277    404.75873    507.56184    21.735142    41402.763 
   56000    302.13646   -1272.9144    391.30536    473.81107    61.232572    41402.763 
   56100    296.84052   -1235.6455    392.43998    488.45639    238.47356    41402.763 
   56200    302.74193   -1247.9503    415.03223    525.21825    368.92826    41402.763 
   56300    297.93073   -1267.9286    374.95288    443.57704   -76.675182    41402.763 
   56400    309.43016   -1262.2591    385.82011    511.70157    360.27636    41402.763 
   56500    300.94631   -1280.2665    404.88876    474.70324    15.988748    41402.763 
   56600    311.43956   -1284.5187    416.19187     528.8281    570.27892    41402.763 
   56700    305.22985   -1272.4921    388.76574    485.57115   -183.86321    41402.763 
   56800    296.93865   -1211.7737    419.22087    539.54926   -128.95571    41402.763 
   56900    300.41758   -1235.0129    418.92937    531.62554    171.44777    41402.763 
   57000    302.93209   -1300.0888    412.73192    471.63253    19.812595    41402.763 
   57100     289.7466   -1303.5939    394.84357    391.08742    266.13881    41402.763 
   57200    311.82552   -1302.5527    390.72202    487.05577    367.12293    41402.763 
   57300    294.35651   -1269.5789     382.9183     433.8578    143.35368    41402.763 
   57400     296.8531   -1262.9004    385.34811    454.16609    313.32998    41402.763 
   57500    304.84304   -1261.4194    414.12098     520.2638    340.16501    41402.763 
   57600     299.3797   -1269.6277    395.72428    469.14954    471.06229    41402.763 
   57700    305.89806   -1275.9821     390.4371    486.75017    453.81381    41402.763 
   57800    293.88198   -1261.7071    395.58429    452.26677   -339.29008    41402.763 
   57900    302.55119   -1278.6544    384.22933    462.85566    286.25055    41402.763 
   58000    298.06263   -1247.5893    417.51695    507.07212    -82.12896    41402.763 
   58100    298.41117   -1313.2178    419.60436    445.09456   -100.08182    41402.763 
   58200    292.36151   -1278.7609    391.07423    423.88184   -438.92206    41402.763 
   58300    294.47706   -1287.7276    410.50663    443.83822   -351.80836    41402.763 
   58400    297.96802     -1339.35    388.91054    386.28056    315.57332    41402.763 
   58500    296.88739   -1338.0492    387.07219    380.89519    218.43418    41402.763 
   58600    299.30585    -1321.574    404.93806    426.08575    210.66166    41402.763 
   58700    301.64706   -1313.7329    403.47494    442.96663    746.07284    41402.763 
   58800    292.02064    -1284.738    396.44029    421.74163     337.5172    41402.763 
   58900    304.33925   -1287.7635    410.36384    487.90246    341.69406    41402.763 
   59000    300.41246   -1312.3759    397.12142    432.43164   -33.108289    41402.763 
   59100    302.74844   -1300.1778    412.86215    470.84996   -192.18736    41402.763 
   59200    307.31501   -1239.6497    421.61115    560.61323   -34.842655    41402.763 
   59300    301.68601   -1297.8063    404.10443    459.69749    313.26872    41402.763 
   59400      290.431   -1323.9908    413.60097    392.51828     102.5485    41402.763 
   59500    309.90217   -1314.5815    419.31653    494.99306    90.260891    41402.763 
   59600    304.10129   -1333.0619     378.9852    410.15786      10.3799    41402.763 
   59700    304.94655   -1307.8796    388.39712    448.54408   -277.45669    41402.763 
   59800    306.70335   -1304.8714    397.02253    468.05889   -553.10287    41402.763 
   59900    297.72123    -1286.583    406.42011       455.45    -380.0392    41402.763 
   60000    304.62753   -1281.8606    395.53066    480.26549     84.33899    41402.763 
   60100    298.73823   -1292.7597    421.53527    468.95082   -190.44103    41402.763 
   60200       300.81   -1303.3845    396.23746    442.32245     7.744745    41402.763 
   60300    302.66643   -1308.7427     405.9301    454.98509   -181.09538    41402.763 
   60400    292.53661   -1296.5841    413.76817    429.53813   -276.15019    41402.763 
   60500    301.26379   -1298.0594    393.32413    446.76991    178.28038    41402.763 
   60600    304.74772   -1242.9794    407.18298    531.33813   -14.842996    41402.763 
   60700    303.48889    -1249.898    400.83847    512.42782   -63.167073    41402.763 
   60800    298.83147   -1246.8018    425.68082    519.47263    9.0372298    41402.763 
   60900    300.51891   -1302.7219    405.88833     451.3301   -213.94698    41402.763 
   61000    306.73288   -1295.8728    432.63207    512.79955    279.95043    41402.763 
   61100    290.97652   -1256.0605    424.34977     473.6446    450.12361    41402.763 
   61200    287.21005   -1263.7267    425.56847    450.30029    238.98547    41402.763 
   61300    291.92718   -1256.5193     398.5512    451.65201   -53.422275    41402.763 
   61400    300.26206   -1309.9901    408.26464    445.28587   -91.803577    41402.763 
   61500    299.42558   -1353.3598    407.35102    397.25005     -1.13116    41402.763 
   61600    301.88306   -1314.1507    422.65903    462.79172   -78.627574    41402.763 
   61700    298.28171   -1268.7946    431.35097    500.68365   -132.83462    41402.763 
   61800    298.43134   -1318.1591    405.72657    426.36603   -133.23662    41402.763 
   61900    295.51939   -1317.1111    387.91684    396.54089   -256.09532    41402.763 
   62000    302.11982   -1298.9929    393.81509    450.16767    50.263428    41402.763 
   62100    306.98198   -1302.7753    423.03007    497.41245  -0.76065847    41402.763 
   62200    298.93715     -1367.82    400.60683    373.85452   -266.26424    41402.763 
   62300    302.29797   -1331.9204    403.08854    427.31285    -95.77286    41402.763 
   62400    314.06621   -1311.9749    397.83256    494.79604   -469.37269    41402.763 
   62500    309.83988   -1330.5093    427.07283    486.54214    309.14755    41402.763 
   62600    303.50572    -1339.068    413.09622      435.591    602.57644    41402.763 
   62700     307.0387   -1328.4441    412.05723    461.02535   -91.481353    41402.763 
   62800    305.24046   -1302.1969    430.91388    498.06203    193.65029    41402.763 
   62900    304.53586   -1338.7844     391.4539    418.85367    200.49287    41402.763 
   63000    293.58808   -1310.9133    410.52144    416.67921    39.609282    41402.763 
   63100    293.84974   -1324.3423    409.25663    403.15926   -339.25643    41402.763 
   63200    297.83902   -1264.1028    394.22574    466.26421   -51.596555    41402.763 
   63300    288.01354   -1282.6702    417.34668    426.73956   -447.16712    41402.763 
   63400    285.74801   -1307.5103    389.35161    363.74099   -332.71122    41402.763 
   63500    312.16794   -1328.7978    380.81986    452.44458   -593.89271    41402.763 
   63600    305.46235   -1309.9582    409.43353    469.81584    76.687916    41402.763 
   63700    305.49736   -1350.8825    403.95547    423.57055   -152.16345    41402.763 
   63800    297.77109   -1354.2236    404.73682    386.34976   -69.030001    41402.763 
   63900     305.5531   -1277.9788    412.85142    505.62023    207.99898    41402.763 
   64000    290.40467   -1291.1614     393.0722    404.70071     338.5781    41402.763 
   64100    302.28053    -1273.167    431.59063    514.49014    504.85726    41402.763 
   64200    309.18128   -1303.1276    427.68067    511.57712    353.18852    41402.763 
   64300    292.72102   -1331.4996    420.72474    402.40656    65.340873    41402.763 
   64400    302.45966   -1294.2806    425.92413    488.51362   -70.645852    41402.763 
   64500    304.68212   -1310.8989    424.51932    480.46074    177.89201    41402.763 
   64600    298.18352   -1373.9523    386.69664    350.43109   -119.43988    41402.763 
   64700    290.73003   -1340.4278    414.70033    378.52212    449.96317    41402.763 
   64800    294.89698   -1386.0581    395.53136    332.41619    112.24546    41402.763 
   64900    281.75181   -1398.4494    406.33627    271.85902   -10.858178    41402.763 
   65000    297.95994   -1356.0613    388.72326    369.34581   -156.76522    41402.763 
   65100    298.27704   -1324.8947    412.05207    425.26373   -51.105745    41402.763 
   65200    289.14471   -1343.5813    395.81357    349.36987   -80.629948    41402.763 
   65300    300.86554   -1353.4895    412.32648    408.55561   -361.88548    41402.763 
   65400    296.79842   -1317.9264    420.20187    433.74848   -342.99714    41402.763 
   65500    305.02781   -1328.6523    403.36679    443.10557   -348.19141    41402.763 
   65600    286.66792   -1309.5941    405.32949    381.76187   -34.809809    41402.763 
   65700    305.05203    -1332.421    409.64563    445.72439   -203.10354    41402.763 
   65800    290.48276   -1317.5157    419.53005    405.15463    154.12237    41402.763 
   65900    291.05542    -1293.473    418.38147     430.6178   -24.789145    41402.763 
   66000    308.02639   -1280.5196    425.44495    526.76842    185.01488    41402.763 
   66100       305.37   -1302.9173      402.892    469.90095   -123.98937    41402.763 
   66200    303.79235   -1315.2395    401.68437    449.29356    145.22129    41402.763 
   66300    294.29922   -1312.6844    412.65527    420.23224   -46.890857    41402.763 
   66400    300.71578   -1346.2145    413.74115    416.57353    816.63699    41402.763 
   66500    309.27458   -1334.6499    435.84104    488.63376     1090.808    41402.763 
   66600    293.53977   -1405.1215    407.97283    319.70571    667.87321    41402.763 
   66700    302.42478   -1371.7787    410.13015     395.0651    374.77729    41402.763 
   66800    297.76562   -1377.2007    421.03566    379.64699    174.21196    41402.763 
   66900    306.17803   -1329.4906    405.31224     449.3727    554.85266    41402.763 
   67000    295.40658   -1324.3688    417.86975    418.72999    129.68218    41402.763 
   67100    293.12856    -1303.571    420.45566    431.89429    266.04913    41402.763 
   67200    292.49209   -1325.3479    415.72965    402.53608    474.60767    41402.763 
   67300    304.85051   -1345.0042    419.33505    441.92659    526.82045    41402.763 
   67400    302.07511   -1300.7489    444.54013    498.93614      408.872    41402.763 
   67500    295.49425    -1274.375    418.07395    469.32139     339.0689    41402.763 
   67600    298.48036   -1326.1929    405.72519    418.55074    668.92644    41402.763 
   67700    296.85467   -1317.5626    407.46346    421.62629    852.63734    41402.763 
   67800    295.73884   -1315.4766    410.47285    421.71592    316.76096    41402.763 
   67900    304.93848   -1372.7599    406.78211     402.0125     674.3947    41402.763 
   68000    311.96812   -1360.4886     422.3831    461.42068    903.75907    41402.763 
   68100     292.9094   -1349.5803     410.4951    374.94126    517.56834    41402.763 
   68200    298.70389   -1345.0264    416.61121      411.606    136.70683    41402.763 
   68300    295.50307   -1308.7658    418.18433    435.08053   -297.20322    41402.763 
   68400    305.62994   -1306.8399    397.82136     462.0738    42.739992    41402.763 
   68500    301.07959   -1324.9986    400.70081    426.38115    40.953015    41402.763 
   68600    307.60296   -1309.8629    421.78253    491.86314    102.25244    41402.763 
   68700    310.15826   -1357.1243    418.33691    452.61954    -281.1611    41402.763 
   68800    308.19059   -1333.7937    410.85488    459.64088   -767.41184    41402.763 
   68900    297.94457   -1325.7812    400.45007    411.28375   -508.57454    41402.763 
   69000     299.1228   -1316.4217    414.67639    440.15524   -548.08038    41402.763 
   69100    298.77173   -1285.2851    433.56335    488.60381    179.98767    41402.763 
   69200    301.60493   -1299.5893    417.09954     470.5459    317.72635    41402.763 
   69300     292.0072   -1276.2685    430.74626    464.45684    366.05353    41402.763 
   69400    296.62901   -1334.4006    415.93805    412.25054    192.62302    41402.763 
   69500    306.30483   -1346.6277     410.3554    437.84762    115.69754    41402.763 
   69600    290.73326   -1307.2566    430.75107    427.75851     54.88685    41402.763 
   69700    301.01442   -1318.3685    418.83759    450.85565     279.7927    41402.763 
   69800    300.33656   -1342.2802    408.73366    413.79901    743.42231    41402.763 
   69900    298.65769     -1300.33    416.25093    455.73493    289.12058    41402.763 
   70000    295.28413   -1286.5505     445.9361    484.06538    253.08662    41402.763 
   70100     298.4295   -1303.5741       450.55     485.7662   -219.22048    41402.763 
   70200     298.8157   -1327.0172    409.36217    422.86778    54.006219    41402.763 
   70300     290.9959   -1318.8847    433.37699    419.93454   -146.28904    41402.763 
   70400    294.25284     -1349.99    413.08107    383.14434   -449.11039    41402.763 
   70500    304.14247   -1331.0532    428.50968    461.87583   -551.19526    41402.763 
   70600     294.4326   -1351.4877    413.46146    382.83344   -784.11024    41402.763 
   70700    301.83875    -1301.358    429.88137    482.60795   -716.66339    41402.763 
   70800    292.23167   -1323.8859    414.04127    401.14146   -817.48746    41402.763 
   70900    297.00214    -1285.358    434.59909    481.62807   -139.12554    41402.763 
   71000    289.33021   -1297.1729    428.45596    429.25285   -261.67472    41402.763 
   71100      297.605   -1324.2923    424.40024    435.19943   -144.35172    41402.763 
   71200    302.64494   -1361.4347    402.32857    398.59509    37.447233    41402.763 
   71300    308.92707   -1356.5175    399.99341     429.3596    525.62734    41402.763 
   71400    298.26297   -1368.4304    430.04438     399.6572   -77.349884    41402.763 
   71500    291.82515   -1346.5342    420.74883    383.37701    51.401745    41402.763 
   71600    312.15389   -1321.3415    441.61256    520.63062    143.89967    41402.763 
   71700    306.20897   -1359.5265    419.88106     434.0445    367.10954    41402.763 
   71800    298.15959   -1368.1738    433.24497    402.65064    494.83308    41402.763 
   71900     307.9527   -1404.8264    422.01406    398.70014    131.76136    41402.763 
   72000    293.95819   -1352.2871    414.69827    381.14261    330.50618    41402.763 
   72100    305.63427    -1384.006    406.43751    393.54322   -209.97661    41402.763 
   72200    287.71229   -1354.3263    426.10542     362.4907   -393.12329    41402.763 
   72300    294.71463   -1392.7635    418.13901    347.50042   -69.684203    41402.763 
   72400    300.39815   -1405.1849    439.51013    381.94711   -538.39514    41402.763 
   72500    287.72648    -1366.505    443.02632    367.29661   -501.91364    41402.763 
   72600    298.54016   -1384.2272    439.26998    394.32953    212.70457    41402.763 
   72700    297.42528   -1412.6858    413.72499    335.32444    353.05405    41402.763 
   72800    305.06878   -1393.7788    419.24334    394.03948    508.34739    41402.763 
   72900    299.95944   -1367.5579     411.8251    389.92101    437.30856    41402.763 
   73000    306.37568   -1405.2002    409.35471    378.59228    350.89943    41402.763 
   73100     303.8312   -1384.7875    425.92565    404.16116   -90.837772    41402.763 
   73200    303.38533   -1391.7739    429.97225    399.22111   -863.46247    41402.763 
   73300    304.01071   -1369.7749    425.77792    419.83126   -855.79488    41402.763 
   73400    295.10396    -1347.579    424.41675    400.70925   -754.61278    41402.763 
   73500    302.59243   -1338.4943    427.20352    446.17486   -445.68643    41402.763 
   73600    298.55574   -1350.1136    425.83378    415.07676   -423.25252    41402.763 
   73700    305.05516   -1351.0696    427.62078      445.065   -251.74663    41402.763 
   73800    293.19243   -1391.3225    417.15564    341.12927   -181.33558    41402.763 
   73900     287.9595   -1390.0739    422.44461    324.19139   -356.29505    41402.763 
   74000    301.50844   -1337.5676    483.60609    498.64126   -139.54731    41402.763 
   74100    297.18931    -1358.341    431.43554    406.32124   -224.87328    41402.763 
   74200    304.11898   -1350.1737    428.95834    443.09854    397.67133    41402.763 
   74300    295.44548   -1347.9495    433.71615     411.1703    192.38562    41402.763 
   74400    299.68308   -1343.1514    443.80085    445.06348    89.102352    41402.763 
   74500    295.33341   -1392.1147    417.73051    350.51667   -72.700631    41402.763 
   74600    285.22478   -1398.5055    421.82836    302.87522    180.63519    41402.763 
   74700     298.7028   -1367.6257    428.38449    400.77517   -320.37518    41402.763 
   74800    309.97919   -1309.5039    423.90401     505.0037    318.16307    41402.763 
   74900    304.83302    -1364.924    422.80298    425.39627      424.959    41402.763 
   75000    300.13692   -1350.4913    418.82229      414.781    64.162451    41402.763 
   75100    305.12643   -1330.9081    439.41186    477.33724    424.81198    41402.763 
   75200    302.08978   -1349.9958     421.3953    426.61027    118.52097    41402.763 
   75300    291.11605   -1339.9947    419.64655    385.63312   -46.806498    41402.763 
   75400    299.31335   -1365.0994    420.09118    397.74712   -458.68316    41402.763 
   75500     296.9849   -1365.7672     439.2186    405.76108    132.68291    41402.763 
   75600    301.32018   -1337.5568    438.42111    452.62248    264.45288    41402.763 
   75700    298.83783   -1384.6609    447.72516     403.6864    50.241405    41402.763 
   75800    290.04018   -1429.0424    429.01145    301.12384    788.41088    41402.763 
   75900    303.76548   -1394.0093     413.4174    382.13629    946.13801    41402.763 
   76000    294.19967   -1406.9378    435.05122    347.92818    656.91636    41402.763 
   76100    302.56152   -1393.7599    417.53998    381.10703    925.13824    41402.763 
   76200    306.75244   -1410.7181    450.21969    415.62952    514.11514    41402.763 
   76300     280.7222    -1364.898    454.89631    349.35159    373.28085    41402.763 
   76400    304.74726   -1371.3962    412.77533    408.51171   -389.08122    41402.763 
   76500    311.10804   -1337.8004     440.0297    497.89698   -686.66345    41402.763 
   76600    304.77268   -1323.2606    420.20647    464.19237   -141.90612    41402.763 
   76700    298.30864    -1298.753    438.77843    478.27347   -21.913863    41402.763 
   76800    307.15235   -1367.6417    432.57798    442.85833   -240.46051    41402.763 
   76900    296.22861   -1364.9934    444.07506    407.99853    436.03638    41402.763 
   77000    308.50468   -1348.7998    439.61016    474.79906    117.92861    41402.763 
   77100    308.26893   -1370.2405     438.6248    451.31542    372.09285    41402.763 
   77200    301.79777   -1375.6934    415.78374    393.99103    520.35512    41402.763 
   77300    298.56483   -1385.6879    437.92414    391.63358    242.28671    41402.763 
   77400    308.46711   -1418.8282    422.60653    387.59856     504.1547    41402.763 
   77500    299.40876   -1382.4205    440.48262    401.24547    437.97379    41402.763 
   77600    306.58178   -1415.3985     431.4855    391.44937    201.47874    41402.763 
   77700    290.57306   -1404.1843    433.19735    332.55838    562.86347    41402.763 
   77800    296.76679   -1370.4341     443.4613    404.35836    710.35774    41402.763 
   77900    315.99371   -1368.7975    448.60527    497.39318    1027.6662    41402.763 
   78000    295.64601   -1365.9091    446.34145    406.73557    599.40689    41402.763 
   78100    307.92644   -1368.1376    448.10353    461.36063    130.30169    41402.763 
   78200    299.82987   -1360.1092     441.5974    426.56076   -132.56879    41402.763 
   78300    300.18216   -1371.5995    425.44404    400.49753    32.939984    41402.763 
   78400     304.0689   -1399.4636    449.70371    414.32937   -100.60988    41402.763 
   78500    300.93549    -1394.406    449.70414    405.33058   -180.28259    41402.763 
   78600    288.38287   -1370.8468    429.03662    351.90976   -336.39613    41402.763 
   78700    300.00457   -1390.6944    413.93665    369.09844    170.15099    41402.763 
   78800    297.84272   -1376.8812    422.64262    381.91934   -70.289343    41402.763 
   78900     294.1972   -1369.2413    437.09555    387.65792     110.0475    41402.763 
   79000    313.29348   -1376.9104    427.89839    456.45987   -102.45868    41402.763 
   79100    296.63114    -1398.275    425.07536    357.52297   -113.90347    41402.763 
   79200    300.04901   -1445.4594    424.72887    325.32505   -77.006819    41402.763 
   79300    294.66568   -1397.3826    427.88935    352.41207   -157.10204    41402.763 
   79400    303.44278   -1431.0682    438.02864    368.24093   -662.12866    41402.763 
   79500    308.64095   -1399.5765    434.93735    419.96092   -335.97914    41402.763 
   79600    318.79359   -1394.8766    394.32429     429.5937   -32.206036    41402.763 
   79700    293.10047   -1381.1143    430.62732    364.39664    450.34117    41402.763 
   79800    297.84758   -1373.4897    418.45424     381.1442   -158.47024    41402.763 
   79900    297.87066   -1361.7964    426.98803    401.47488    29.094158    41402.763 
   80000    297.99878   -1367.4404    422.62852    392.04617   -91.354636    41402.763 
   80100    300.01676   -1371.6692    438.45492    412.69664   -114.95133    41402.763 
   80200    289.67892   -1377.5428    426.89168      348.883   -625.34605    41402.763 
   80300    299.41661   -1352.9726    452.57986     442.8258   -457.12035    41402.763 
   80400     310.1847   -1348.1056    431.16851    474.58844    -390.0953    41402.763 
   80500    303.84593   -1405.5249    428.38291    385.94706   -142.91066    41402.763 
   80600    292.35985   -1400.5401    422.05045    333.07149    101.82432    41402.763 
   80700    304.61622   -1394.1076    418.91598    391.35301    315.30866    41402.763 
   80800    301.59862    -1381.316    439.48761    411.17895    756.46126    41402.763 
   80900    319.27916   -1366.7128     415.5003    481.11188     630.8449    41402.763 
   81000    280.63902   -1376.4054    444.18817    326.76281    310.20034    41402.763 
   81100    297.47022   -1366.4662    435.79267    403.81333    458.78419    41402.763 
   81200    305.88405   -1367.9997    441.58196    445.81458    565.12893    41402.763 
   81300    296.27784   -1340.6822    426.44786    414.90336   -96.261898    41402.763 
   81400    303.22121   -1324.4274    450.13033    485.98936   -263.37354    41402.763 
   81500    295.94225   -1341.1922    418.99672    405.43675   -222.59524    41402.763 
   81600    310.52896   -1367.0875    439.40486    465.38729    149.88007    41402.763 
   81700    301.71313   -1375.8612    426.18121    403.84104   -109.40166    41402.763 
   81800    294.47324   -1335.2838    432.09752     417.8557   -690.24661    41402.763 
   81900    303.01664   -1338.3357    453.84695    474.87997   -921.21292    41402.763 
   82000     297.1052   -1363.7091    421.75642    390.89663   -308.32061    41402.763 
   82100     294.4765   -1339.5729     449.0018    430.48552   -373.85218    41402.763 
   82200    299.16219   -1327.9027    450.98249    465.15699   -584.58761    41402.763 
   82300    306.62573   -1348.0147    452.76501    480.30987   -611.67374    41402.763 
   82400    299.60751   -1364.2418    455.74598    435.57914   -266.45807    41402.763 
   82500    307.22789   -1366.4443    423.16383    434.98046   -181.69496    41402.763 
   82600    295.01037   -1374.0965    443.60187    392.95704    250.38224    41402.763 
   82700    292.06352     -1393.16    436.28265    353.35442     154.9189    41402.763 
   82800    303.72066   -1384.0469    425.01013    403.49022    -43.58294    41402.763 
   82900    299.13676    -1386.248    441.13719    396.85232   -113.34478    41402.763 
   83000    301.71352   -1381.3092    421.00942    393.22306    125.21394    41402.763 
   83100    295.20422   -1402.8325     440.2976     361.7864   -807.02985    41402.763 
   83200    294.49552   -1402.9228     466.0201    384.23927   -674.10886    41402.763 
   83300    302.36329   -1407.5807     475.9684    424.82539    433.38302    41402.763 
   83400    289.01321   -1391.0224    454.79312     360.3184    66.871094    41402.763 
   83500     298.9894   -1416.3897     432.8173    357.72969    82.590881    41402.763 
   83600    303.17341   -1414.8906    466.27637    411.45776    568.58514    41402.763 
   83700    298.57773   -1387.8106    452.49147    404.13615     219.9831    41402.763 
   83800    294.50466   -1412.5967    444.27845    352.86468    321.96142    41402.763 
   83900    301.05246   -1356.7963    448.56272    442.32358   -241.02946    41402.763 
   84000    295.91513   -1353.1263    451.77358    426.15785    174.31807    41402.763 
   84100    299.48269   -1331.6245    458.44996    470.34047   -26.544393    41402.763 
   84200    297.97542   -1382.9185    439.77346    393.60823   -69.969063    41402.763 
   84300    290.88361    -1403.102    428.81049    330.64695    199.47424    41402.763 
   84400    298.15623   -1377.7955    432.49982    392.26865    375.19167    41402.763 
   84500    297.85039   -1346.2816    464.52296    454.43369    132.76742    41402.763 
   84600    301.04401   -1361.8149    437.93184    426.63622    113.09949    41402.763 
   84700    313.70037   -1329.4588    464.70088    542.53927    184.80949    41402.763 
   84800    313.58317   -1334.4597    432.08508    504.39683   -61.121429    41402.763 
   84900    297.04859   -1394.3833    454.21848    392.43051   -570.85937    41402.763 
   85000    291.43181   -1352.9112    461.43806    415.92469   -317.53004    41402.763 
   85100    302.49908   -1301.3499    452.94493    508.64198   -475.74667    41402.763 
   85200    301.05057   -1350.2085    464.99022    465.33049   -622.25227    41402.763 
   85300    293.70219   -1381.5094    451.73397    387.80751    -688.4607    41402.763 
   85400    298.25232    -1388.334    440.74221    390.40368   -592.45755    41402.763 
   85500    301.82998   -1409.3681     444.3757    389.05281   -164.97763    41402.763 
   85600    303.43155   -1377.9528    463.78685    447.06414   -136.82525    41402.763 
   85700    295.95626   -1365.5751    459.26327    421.38322   -342.45073    41402.763 
   85800    305.31531   -1361.2314    457.61567    466.06507    219.45777    41402.763 
   85900    302.24724   -1374.8602    479.44265    460.49954    820.12234    41402.763 
   86000    288.97653   -1436.8022    445.35714    304.93804    905.15273    41402.763 
   86100     300.3426   -1383.5434    438.62485    402.45418    712.71216    41402.763 
   86200    303.26263    -1364.196    480.87392    477.15021    582.88161    41402.763 
   86300    294.61805   -1397.9509    417.43135    341.17209    717.56804    41402.763 
   86400    303.34744   -1367.7805    446.37747    439.44977      765.746    41402.763 
   86500    307.81022   -1385.5047     442.4085    437.77717    574.00293    41402.763 
   86600    294.33814   -1403.3017    434.29001     351.4243     95.82919    41402.763 
   86700    299.76501   -1421.9705     446.1851     368.9961    107.41945    41402.763 
   86800    301.47705   -1354.0101    468.19941    466.65127    703.96979    41402.763 
   86900    309.19389   -1355.6278    472.70615    504.15902    232.91843    41402.763 
   87000    304.08613   -1386.2424    452.45644    430.38062    506.69143    41402.763 
   87100    298.03736   -1390.4328    459.58255    406.18088    579.62883    41402.763 
   87200    308.46283   -1378.5735      458.149    463.37648     915.0731    41402.763 
   87300    294.81834   -1326.3093    471.28293     467.5638    517.09405    41402.763 
   87400    309.32839   -1340.9706    450.42012    497.13349    648.80152    41402.763 
   87500    294.71016   -1389.3081     441.3958    374.19264     795.5692    41402.763 
   87600    308.52314    -1398.639    438.44922     423.8818     606.2441    41402.763 
[...]
  984400    308.72928   -1437.7464    467.56485    414.81479   -70.115445    41402.763 
  984500    300.76436   -1432.3129    481.73201    398.68388    49.645169    41402.763 
  984600     297.0903   -1434.8361    460.54423    358.49067       14.953    41402.763 
  984700    297.06884   -1367.9768    476.18408    440.89352   -139.49994    41402.763 
  984800    299.25075   -1409.5605    471.97172    404.88577    -41.47082    41402.763 
  984900    310.00456   -1406.9641    465.35922    449.11256   -48.051626    41402.763 
  985000    301.85063   -1370.7159    472.37206    455.79408   -270.10495    41402.763 
  985100    299.92002   -1411.6489     473.8434    407.67146   -275.88613    41402.763 
  985200    302.90288   -1449.2885    460.39904    369.96894    158.52945    41402.763 
  985300    297.43195   -1449.1994     466.8283    351.94407    126.36995    41402.763 
  985400    291.64251   -1445.1159     467.0216    330.24871   -255.02228    41402.763 
  985500     309.4968   -1442.7415    479.74796    425.44593    338.31062    41402.763 
  985600    306.69805   -1473.3187    468.46964     371.0349     551.1368    41402.763 
  985700    302.36259    -1425.683    442.06326     372.8148   -208.77511    41402.763 
  985800     312.0048   -1452.3804    458.87156    406.18185   -171.93945    41402.763 
  985900    299.31724   -1447.3413    476.84591    372.27743    42.690463    41402.763 
  986000    303.48615   -1417.3143    461.22845    405.38917    33.902796    41402.763 
  986100    298.19249   -1408.6778    480.16155    409.21079   -216.11623    41402.763 
  986200    302.14452   -1405.1227    458.84202    409.17566   -680.95464    41402.763 
  986300    308.51703   -1386.5886    472.81637    470.27191   -769.42233    41402.763 
  986400    302.44048   -1425.6105    486.18759    417.36109   -1206.7192    41402.763 
  986500    296.99822   -1459.2282    432.95793    306.09917   -761.51669    41402.763 
  986600    297.37584   -1405.4276    476.19647    404.83235   -582.79502    41402.763 
  986700    294.29962   -1449.3574    442.00103    312.90676   -712.10003    41402.763 
  986800    299.90516   -1442.2842    492.32738    395.45345   -630.19978    41402.763 
  986900    298.70412   -1410.4363    456.03204    385.61802    -450.7182    41402.763 
  987000    305.02072   -1448.3659    424.99782    344.99126    43.402405    41402.763 
  987100    292.30258   -1492.8913     467.5002    285.91307   -267.16983    41402.763 
  987200    298.82691   -1450.5493      495.261    385.28485   -315.60111    41402.763 
  987300    291.83198   -1438.1723    429.70215    300.72284   -610.84396    41402.763 
  987400    293.49884   -1407.3418    479.75043    389.07936   -425.69775    41402.763 
  987500     305.4568   -1482.3815    432.55805    320.49211    281.02281    41402.763 
  987600    292.94983   -1483.6936    457.22889    287.74312    295.74598    41402.763 
  987700    293.24626   -1476.2498    491.45036     330.7382    547.40112    41402.763 
  987800    299.29155   -1455.6269    461.41435    348.44503    135.91528    41402.763 
  987900    296.39325   -1425.0663    471.41706    376.00613    261.52823    41402.763 
  988000    297.03465    -1438.685    437.90119      331.749   -71.786934    41402.763 
  988100    291.31331   -1406.7429    463.63142    363.75472   -78.571209    41402.763 
  988200    295.10691   -1446.7861    496.84978    373.94848    -340.9711    41402.763 
  988300    297.67548   -1459.7289     436.6901     312.3689   -67.376397    41402.763 
  988400    307.53539   -1449.6294    473.51758    403.52861   -218.76337    41402.763 
  988500    302.61545    -1470.861    475.12982     361.8378   -340.66132    41402.763 
  988600    297.71162   -1410.2855    451.32184    376.60614   -487.47981    41402.763 
  988700    295.04969   -1481.6512    479.62131    321.59812   -153.55973    41402.763 
  988800    313.57745   -1477.9985    459.16935     387.9166    430.14086    41402.763 
  988900     295.9219    -1468.655    468.58669    327.47255    739.82832    41402.763 
  989000    302.36876   -1431.3171      485.548    410.69318    376.04242    41402.763 
  989100    303.58325   -1447.9457     449.3794    363.34432    -30.09063    41402.763 
  989200    294.75482   -1421.5101    476.62159    377.41676    39.757882    41402.763 
  989300    303.50927    -1408.912     461.2217    413.88849   -174.70698    41402.763 
  989400    305.78936   -1427.3665    472.31208     416.7531   -319.72514    41402.763 
  989500    294.35426   -1484.2793    466.10265    302.33161    -641.9922    41402.763 
  989600    295.65921   -1412.3318    453.95132      367.982   -295.72018    41402.763 
  989700    291.39211   -1456.5604    462.64908    313.30842    -777.6657    41402.763 
  989800    289.57821   -1468.6757    478.37515    308.78182     -214.931    41402.763 
  989900    307.15838   -1480.1313    468.16371    365.98152   -263.05486    41402.763 
  990000    307.18938   -1475.2824    474.56357    377.36934    19.822401    41402.763 
  990100    298.82866   -1486.0751    437.38831    291.89424    170.15013    41402.763 
  990200    303.90063   -1458.2175    475.04236    380.15926   -284.74339    41402.763 
  990300    298.28159   -1419.5793    465.77257    384.32002    75.565297    41402.763 
  990400    298.73349   -1391.5632     469.3757    417.96651    212.23833    41402.763 
  990500    291.82959   -1436.3125    458.93622    331.80598   -587.55366    41402.763 
  990600    304.75073   -1465.2093    460.26319    362.20194    128.20658    41402.763 
  990700    300.58318   -1453.7584    467.66731    362.36086   -98.597181    41402.763 
  990800    301.26904    -1459.317    446.92178    339.13356   -484.02161    41402.763 
  990900    300.66877   -1418.8959    480.38109     410.3211   -681.30854    41402.763 
  991000    309.63978   -1400.3124    471.03988    459.80839    -961.0091    41402.763 
  991100    296.19008   -1398.5411    469.33994    399.54286     -665.503    41402.763 
  991200    298.47716   -1445.8354    442.23468    335.40333    193.37292    41402.763 
  991300      295.021   -1425.7633    481.47709    379.21317    122.46686    41402.763 
  991400    300.76767   -1401.6694     471.2961    418.90626    539.09616    41402.763 
  991500    298.43198   -1422.4287    455.93062    372.30332    147.58966    41402.763 
  991600    294.62731   -1404.9406    472.01587     388.8085    547.92185    41402.763 
  991700    297.59898   -1436.0965    467.81675    366.78475    120.56281    41402.763 
  991800    297.33868   -1443.9224    450.26249    340.23685    -106.6132    41402.763 
  991900    303.00308   -1451.4899    466.74644    374.56449     142.3214    41402.763 
  992000    303.95247   -1461.7526    493.10852    394.92291   -869.38824    41402.763 
  992100    294.73003   -1457.9963    466.44173    330.63946   -382.50711    41402.763 
  992200    291.09895   -1452.7287    440.63829    293.81415   -99.551018    41402.763 
  992300    290.31534   -1459.9721    469.15483    311.57196    209.21161    41402.763 
  992400    307.58883   -1465.2344    469.56932    384.21506    405.02427    41402.763 
  992500    307.49049   -1456.6188    455.28159    378.10177    519.20228    41402.763 
  992600    298.84133   -1485.3897    447.21384    302.46191    704.43956    41402.763 
  992700    299.06895   -1455.4442    477.57249    363.78721    430.01419    41402.763 
  992800    307.31663   -1497.3454    465.98723    347.30086    500.66746    41402.763 
  992900    307.70755   -1508.4907    467.26072    339.18278    351.22476    41402.763 
  993000    297.98776   -1496.6602    458.71337    298.86172    334.07114    41402.763 
  993100    305.88771   -1483.6366    457.28554    345.89768    418.61748    41402.763 
  993200    292.11896   -1492.0759    460.66404    279.06858   -174.22394    41402.763 
  993300    310.05327    -1491.973    453.27705    352.23992   -286.97586    41402.763 
  993400    310.97315   -1497.5055    455.94315    353.50028   -133.82721    41402.763 
  993500     304.3819    -1471.259    446.61135    340.84578   -250.10586    41402.763 
  993600    294.25632   -1472.3636    446.16623     293.8715   -675.63723    41402.763 
  993700    304.32074   -1455.3632    455.84875    365.70466   -375.05187    41402.763 
  993800    279.53936   -1441.0138    474.78149     287.8146   -98.211648    41402.763 
  993900    303.78252   -1446.1582    463.16123    379.80765    224.49656    41402.763 
  994000    297.45963    -1462.059    467.37666    339.75702    835.80489    41402.763 
  994100    295.40085   -1507.3766    478.35455    296.18135    482.01898    41402.763 
  994200    300.22342   -1483.7575    464.12704    327.20754    904.44155    41402.763 
  994300    303.81692   -1493.5562    470.03353    339.43624    810.99747    41402.763 
  994400    292.11213   -1487.1322    477.76948    301.08716    497.67231    41402.763 
  994500    292.91957   -1446.9767    457.43949    324.53482   -246.38496    41402.763 
  994600    301.28816   -1436.7937    469.35889    384.17976   -114.68842    41402.763 
  994700    297.48449   -1434.6556    474.96447    374.85976   -834.25177    41402.763 
  994800    304.24118   -1436.7958     511.9399    440.00628   -367.23047    41402.763 
  994900    299.59916   -1478.1782    443.80662    309.66593   -477.52799    41402.763 
  995000    303.89174   -1489.4273     486.2807      360.148   -376.06151    41402.763 
  995100    289.53008   -1514.3083      472.258    256.81615   -72.330346    41402.763 
  995200    299.49206   -1473.6046    453.00722    322.95968    440.99521    41402.763 
  995300    307.96041   -1492.7361    487.21969    376.03069       666.62    41402.763 
  995400    303.95433    -1516.137    471.24451    318.68281    585.14642    41402.763 
  995500    309.28953    -1477.786    498.01579    407.73948    159.69383    41402.763 
  995600    302.41924   -1467.9346    467.86044    356.61456    436.12694    41402.763 
  995700    300.21007   -1484.1376    471.90139     334.5419    454.62996    41402.763 
  995800    310.44417   -1441.9075    461.37241    412.15444    571.77943    41402.763 
  995900    296.14921   -1416.7739    476.11396    387.90071    494.68174    41402.763 
  996000    299.74262   -1395.8697    494.04045     442.8519    127.49908    41402.763 
  996100    288.24656   -1386.8152    488.05978    394.35296   -169.41807    41402.763 
  996200    308.75832   -1449.4783     464.2842    399.93255   -390.24143    41402.763 
  996300    298.57233   -1415.1145    496.33217    420.64874   -596.48008    41402.763 
  996400    303.33335   -1456.9381    428.71489    332.56634    420.40928    41402.763 
  996500    301.77597   -1421.0855     499.6109    432.32834    584.75041    41402.763 
  996600    294.32857   -1452.2714    473.85647    341.97812    316.66099    41402.763 
  996700     308.3918   -1421.8034    475.79172    437.47061   -35.310368    41402.763 
  996800    297.59348   -1443.5298    497.68772    389.19777   -132.63322    41402.763 
  996900    299.58973   -1427.8449    457.40642    373.55669    355.45817    41402.763 
  997000    305.15187   -1431.3202    492.50925    430.13665     314.2776    41402.763 
  997100    297.05103   -1464.1013    482.84125    351.34624   -5.4708692    41402.763 
  997200    307.95327   -1464.4584    476.59715    393.65385    30.142468    41402.763 
  997300    292.43763   -1416.3215    470.99007    366.57863    309.78208    41402.763 
  997400    294.61219   -1461.2018    472.86863    333.33221    321.77418    41402.763 
  997500    297.46921    -1494.504    471.37501    311.35335    117.06644    41402.763 
  997600    292.19619   -1465.9907    474.67734    319.51354   -208.90833    41402.763 
  997700    308.54982   -1461.0196    455.58586    378.75746    81.661818    41402.763 
  997800    310.62735   -1465.9603     463.4987    391.04972    274.70792    41402.763 
  997900    303.85151   -1486.9164    506.69817    382.89583    34.352989    41402.763 
  998000    309.30492   -1459.3573    457.74036    385.96181    293.38262    41402.763 
  998100    311.12525   -1485.7757    486.64229    396.61149    263.61595    41402.763 
  998200    283.02176   -1449.5005    478.42799    298.59681    -476.9589    41402.763 
  998300    300.41954   -1422.7888    505.51898    430.44797   -661.56419    41402.763 
  998400    300.02232    -1449.383    461.49812    358.05101   -153.81278    41402.763 
  998500    298.53477   -1444.6545    477.21818    371.82619    72.203838    41402.763 
  998600     298.3335   -1425.9015    461.22419    373.68225   -30.124026    41402.763 
  998700    290.33033   -1412.2416    493.56412    383.77896    92.605977    41402.763 
  998800     302.0557   -1440.5163    480.54721    395.08876    235.40035    41402.763 
  998900    302.08628   -1424.2509    455.12849    386.07267    12.927622    41402.763 
  999000    286.54353   -1471.1873    499.04195     313.3231   -331.26468    41402.763 
  999100    292.04306    -1488.915    442.90405      264.129   -903.11665    41402.763 
  999200    301.74086   -1486.2132    423.89981    291.33205   -904.23849    41402.763 
  999300    305.44025   -1459.9077    470.67718    381.01077    -261.9347    41402.763 
  999400    310.49844   -1485.7005    439.38693     346.6194   -19.859543    41402.763 
  999500    301.87529   -1510.7349    460.43854    303.95214   -192.85303    41402.763 
  999600       291.04   -1471.8787     469.3712    303.13255   -284.03464    41402.763 
  999700    298.78492   -1507.6449    473.00877    305.74858   -476.66692    41402.763 
  999800    291.37297   -1465.5388    479.64254    321.23766   -316.63945    41402.763 
  999900    300.82645   -1511.2681    448.17889    286.45408   -511.31531    41402.763 
 1000000    295.77169   -1484.6944    474.93542    317.10806   -672.83458    41402.763 
 1000100    297.70836    -1513.966    468.61049    290.19969   -462.32458    41402.763 
 1000200    308.99102   -1464.3886    466.96476    388.74674   -49.787979    41402.763 
 1000300    295.94399   -1468.8109    457.68943    316.51854   -394.31831    41402.763 
 1000400    296.90769   -1442.9416    456.40651    345.42823    45.371105    41402.763 
 1000500     306.1791   -1461.2809    477.36012    389.63509    199.48751    41402.763 
 1000600    284.56592   -1467.4609     501.4314    310.56716    629.60549    41402.763 
 1000700    299.99462   -1489.6331    479.96807    336.14662    950.98702    41402.763 
 1000800    306.11991   -1487.8912    461.98603    347.38515    867.66708    41402.763 
 1000900    289.11697   -1483.5513    451.74693    265.20876   -57.928447    41402.763 
 1001000    307.11103   -1451.1053    473.75638    400.38773   -3.4859408    41402.763 
 1001100     311.1092   -1460.3799    460.06815     395.3612   -273.42315    41402.763 
 1001200    304.08824   -1462.6299    471.96494    373.51114    32.628156    41402.763 
 1001300    317.21582   -1449.5469    449.84835    423.36934   -113.39707    41402.763 
 1001400    293.52159   -1443.2647    457.44365    330.95177   -210.61903    41402.763 
 1001500    295.10371   -1511.6986    455.03163    267.20344   -548.77495    41402.763 
 1001600    312.03042    -1523.184    459.03888    335.66055   -312.50373    41402.763 
 1001700    287.81466   -1507.9187    462.66073    245.91292   -762.15754    41402.763 
 1001800    302.47301    -1459.245    469.13784    366.82277    -470.1923    41402.763 
 1001900    289.66561   -1472.9658    485.61676    312.12536   -342.58718    41402.763 
 1002000    304.00171   -1455.3918    489.97999     398.3761   -233.56204    41402.763 
 1002100    291.83972   -1447.0995    462.38383    324.51209   -531.76924    41402.763 
 1002200    297.13467   -1438.9706    479.76821    373.77917    -589.9535    41402.763 
 1002300    304.14566   -1449.8804    490.26823    404.82154    -500.6804    41402.763 
 1002400     293.7579   -1524.4563    471.88012    265.25678     183.1682    41402.763 
 1002500     304.5632   -1459.9153    457.81209     364.2036   -80.389721    41402.763 
 1002600    287.90766   -1466.8508    479.11723    303.85447   -108.08853    41402.763 
 1002700     300.0697   -1416.2902    507.22734    437.08553    318.06465    41402.763 
 1002800    285.52227   -1446.3116    498.69741    333.27271   -120.70204    41402.763 
 1002900    304.41864   -1418.4593    484.73516    431.93418    97.578211    41402.763 
 1003000    295.31136   -1462.1507    488.59254     351.2438   -212.77633    41402.763 
 1003100    296.47498   -1436.1883    492.70375    386.53753   -307.89841    41402.763 
 1003200     306.8476   -1451.4396    458.53517    383.65045    204.17988    41402.763 
 1003300    297.96071   -1477.9007    503.25872    362.04524    527.30411    41402.763 
 1003400    301.46256   -1464.4504    476.13089    364.07748   -41.367662    41402.763 
 1003500    291.52757   -1500.5916    498.25475    305.49055   -394.91096    41402.763 
 1003600    299.18142   -1477.5579    464.85543    329.46105   -316.56561    41402.763 
 1003700    300.58143   -1493.2428    487.17557    342.37683    146.54937    41402.763 
 1003800     294.7243    -1485.382    449.79732    286.58364   -391.93241    41402.763 
 1003900    297.29046   -1517.4052    461.09678    277.37203   -84.665113    41402.763 
 1004000    296.17082   -1475.9921    464.28239    316.94786   -118.17399    41402.763 
 1004100    294.58251   -1473.1646    464.85385    313.22152   -424.05258    41402.763 
 1004200    296.53989   -1472.2505    492.00289    350.06565   -409.33534    41402.763 
 1004300    305.79979   -1461.8838     497.1965    407.16698    131.54073    41402.763 
 1004400    303.56772   -1487.0021    477.66626    352.50508    73.547907    41402.763 
 1004500    296.84393   -1452.6265    494.36887    373.41958   -198.91053    41402.763 
 1004600    303.34374   -1416.5252    497.16623    441.47723   -61.710027    41402.763 
 1004700    307.94728   -1442.1552    471.88483    411.21776    -318.7635    41402.763 
 1004800    307.26791   -1487.9264     465.5174    356.03143    351.17619    41402.763 
 1004900    295.15444   -1522.2257    459.71874    261.59097   -44.024557    41402.763 
 1005000    302.19199   -1494.0571    500.00931     361.6215    -122.5956    41402.763 
 1005042    290.75457   -1489.2341     474.0725    289.19801    353.66021    41402.763 
Loop time of 614.823 on 32 procs for 1000000 steps with 1506 atoms

Performance: 140.528 ns/day, 0.171 hours/ns, 1626.485 timesteps/s
100.0% CPU use with 32 MPI tasks x no OpenMP threads

MPI task timing breakdown:
Section |  min time  |  avg time  |  max time  |%varavg| %total
---------------------------------------------------------------
Pair    | 217.81     | 257.56     | 297.14     | 143.2 | 41.89
Bond    | 1.3358     | 1.4934     | 1.6613     |   6.9 |  0.24
Neigh   | 39.893     | 39.969     | 40.037     |   0.8 |  6.50
Comm    | 264.14     | 303.84     | 343.52     | 131.7 | 49.42
Output  | 0.42408    | 0.43884    | 0.82241    |  10.4 |  0.07
Modify  | 8.4938     | 8.8297     | 9.1247     |   5.4 |  1.44
Other   |            | 2.695      |            |       |  0.44

Nlocal:        47.0625 ave          82 max           9 min
Histogram: 1 4 4 4 2 2 7 2 1 5
Nghost:        1840.31 ave        1913 max        1773 min
Histogram: 4 3 3 2 6 1 5 1 5 2
Neighs:        5099.16 ave       11516 max         400 min
Histogram: 4 6 3 4 2 4 3 2 1 3

Total # of neighbors = 163173
Ave neighs/atom = 108.34861
Ave special neighs/atom = 2.0066401
Neighbor list builds = 49811
Dangerous builds = 0

# Output the system volume
variable v equal vol
print 'The system volume is $v'
The system volume is 41402.7631381494

# Outputs
variable A equal xhi-xlo
variable B equal yhi-ylo
variable C equal zhi-zlo
variable D equal xy
variable E equal xz
variable F equal yz
print 'Lattice vectors'
Lattice vectors
print '$A 0 0'
34.5947164513315 0 0
print '$D $B 0'
0 34.5947164513315 0
print '$E $F $C'
0 0 34.5947164513315
Total wall time: 0:10:20
