LAMMPS (29 Sep 2021 - Update 1)
Reading data file ...
  triclinic box = (0.0000000 0.0000000 0.0000000) to (15.000000 15.000000 15.000000) with tilt (0.0000000 0.0000000 0.0000000)
  2 by 4 by 4 MPI processor grid
  reading atoms ...
  1512 atoms
  scanning bonds ...
  3 = max bonds/atom
  scanning angles ...
  6 = max angles/atom
  scanning dihedrals ...
  10 = max dihedrals/atom
  scanning impropers ...
  1 = max impropers/atom
  reading bonds ...
  1011 bonds
  reading angles ...
  518 angles
  reading dihedrals ...
  19 dihedrals
  reading impropers ...
  2 impropers
Finding 1-2 1-3 1-4 neighbors ...
  special bond factors lj:    0        0        1       
  special bond factors coul:  0        0        1       
     4 = max # of 1-2 neighbors
     5 = max # of 1-3 neighbors
     9 = max # of special neighbors
  special bonds CPU = 0.002 seconds
  read_data CPU = 0.017 seconds
WARNING: Using 'neigh_modify every 1 delay 0 check yes' setting during minimization (../min.cpp:188)
Neighbor list info ...
  update every 1 steps, delay 0 steps, check yes
  max neighbors/atom: 10000, page size: 100000
  master list distance cutoff = 13
  ghost atom cutoff = 13
  binsize = 6.5, bins = 3 3 3
  3 neighbor lists, perpetual/occasional/extra = 3 0 0
  (1) pair hbond/dreiding/lj, perpetual, skip from (3)
      attributes: full, newton on
      pair build: skip
      stencil: none
      bin: none
  (2) pair lj/cut, perpetual, half/full from (3)
      attributes: half, newton on
      pair build: halffull/newton
      stencil: none
      bin: none
  (3) neighbor class addition, perpetual
      attributes: full, newton on
      pair build: full/bin
      stencil: full/bin/3d
      bin: standard
Setting up cg style minimization ...
  Unit style    : real
  Current step  : 0
WARNING: Energy due to 1 extra global DOFs will be included in minimizer energies
Per MPI rank memory allocation (min/avg/max) = 14.59 | 14.94 | 15.35 Mbytes
Step Temp E_pair E_mol TotEng Press Volume 
       0            0 1.4331251e+18    265.84936 1.4331251e+18 1.1646473e+20         3375 
    5647            0   -997.05319    25.638882   -971.41431     126.4515    39993.759 
Loop time of 4.75458 on 32 procs for 5647 steps with 1512 atoms

100.0% CPU use with 32 MPI tasks x no OpenMP threads

Minimization stats:
  Stopping criterion = energy tolerance
  Energy initial, next-to-last, final = 
    1.43312510100532e+18  -970.789272312236  -970.880265297975
  Force two-norm initial, final = 2.9680727e+20 118.97230
  Force max component initial, final = 1.9584368e+20 96.285101
  Final line search alpha, max atom move = 2.2319171e-05 0.0021490036
  Iterations, force evaluations = 5647 5648

MPI task timing breakdown:
Section |  min time  |  avg time  |  max time  |%varavg| %total
---------------------------------------------------------------
Pair    | 1.545      | 2.5623     | 4.0182     |  33.6 | 53.89
Bond    | 0.0075122  | 0.011751   | 0.026037   |   3.0 |  0.25
Neigh   | 0.10105    | 0.10124    | 0.1016     |   0.0 |  2.13
Comm    | 0.2664     | 1.7233     | 2.739      |  41.0 | 36.24
Output  | 0          | 0          | 0          |   0.0 |  0.00
Modify  | 0          | 0          | 0          |   0.0 |  0.00
Other   |            | 0.356      |            |       |  7.49

Nlocal:        47.2500 ave          77 max          29 min
Histogram: 2 3 4 12 4 4 0 2 0 1
Nghost:        1843.75 ave        1873 max        1820 min
Histogram: 3 3 3 8 2 1 7 3 1 1
Neighs:        4588.09 ave        7682 max        2765 min
Histogram: 3 4 5 6 6 3 3 0 1 1

Total # of neighbors = 146819
Ave neighs/atom = 97.102513
Ave special neighs/atom = 2.0224868
Neighbor list builds = 100
Dangerous builds = 0
1500 atoms in group WAT
12 atoms in group MOL
Neighbor list info ...
  update every 2 steps, delay 10 steps, check yes
  max neighbors/atom: 10000, page size: 100000
  master list distance cutoff = 13
  ghost atom cutoff = 13
  binsize = 6.5, bins = 6 6 6
  4 neighbor lists, perpetual/occasional/extra = 3 1 0
  (1) pair hbond/dreiding/lj, perpetual, skip from (4)
      attributes: full, newton on
      pair build: skip
      stencil: none
      bin: none
  (2) pair lj/cut, perpetual, half/full from (4)
      attributes: half, newton on
      pair build: halffull/newton
      stencil: none
      bin: none
  (3) compute group/group, occasional, copy from (2)
      attributes: half, newton on
      pair build: copy
      stencil: none
      bin: none
  (4) neighbor class addition, perpetual
      attributes: full, newton on
      pair build: full/bin
      stencil: full/bin/3d
      bin: standard
Setting up Verlet run ...
  Unit style    : real
  Current step  : 5647
  Time step     : 1
Per MPI rank memory allocation (min/avg/max) = 13.43 | 13.48 | 14.00 Mbytes
Step Temp E_pair E_mol TotEng Press Volume 
    5647          300   -997.05319    25.638882    379.78688    1670.8545    39993.759 
    5700    289.71607   -992.78034    187.69327    499.79527    919.40291    39993.759 
    5800    293.62928   -1029.7422    161.15662    453.92186    31.015273    39993.759 
    5900    302.52381   -1027.2502    200.22596    535.54418   -499.84711    39993.759 
    6000    300.13613   -986.49639    154.24483    519.56277    273.21744    39993.759 
    6100    293.77369   -1016.6516    167.58251    474.08883    207.12137    39993.759 
    6200    294.96435   -994.53657    180.56596    514.54998    254.44682    39993.759 
    6300     298.1308   -1035.0087    187.54425    495.31787    302.66657    39993.759 
    6400    315.55577   -1014.6564    175.59185    582.19994     366.9275    39993.759 
    6500    298.65075   -1009.9404    190.22653     525.4103    270.62779    39993.759 
    6600     300.9277    -1024.771    188.50519    519.11374    424.73728    39993.759 
    6700    309.43875   -1037.4506    190.54308    546.80585    312.32288    39993.759 
    6800    306.60522   -1003.7841    175.13055    552.29755    310.52954    39993.759 
    6900     297.8526    -1023.341    196.85125    515.03955    822.78154    39993.759 
    7000    301.06908    -1041.661    190.88062    505.23593    89.779337    39993.759 
    7100    296.56613   -1092.9151    188.84498    431.66496    285.47593    39993.759 
    7200    288.84641     -1059.18    187.93792    429.72331    564.72854    39993.759 
    7300    305.02551   -1053.8012    193.92503    513.95996    282.74744    39993.759 
    7400    302.95424   -1056.5397    204.39764    512.36501    735.21629    39993.759 
    7500    306.12219   -1070.4972     196.9392    505.21754    328.58698    39993.759 
    7600    291.14737   -1080.9046    187.20461    417.62897    399.76913    39993.759 
    7700    296.48562   -1049.9527    208.86753    494.28727    26.191994    39993.759 
    7800    299.72479   -1056.0461    206.93209    500.84759   -9.3745895    39993.759 
    7900    303.45083   -1028.1647    205.44998    544.02905    548.43091    39993.759 
    8000    303.39709    -1035.894    202.03402     532.6417    151.89155    39993.759 
    8100    295.70327   -1051.7523    214.10594    494.20235    336.32808    39993.759 
    8200    304.39296   -1072.0519     201.3388    500.27405    364.74637    39993.759 
    8300    304.95683   -1087.2959    214.64894    500.87982    529.03518    39993.759 
    8400    292.60064   -1075.2247    191.30398    433.95377    42.101727    39993.759 
    8500     308.6022   -1105.2528    220.78488    505.47766    344.18918    39993.759 
    8600     292.6842   -1067.0114    208.17546    459.41486    141.52757    39993.759 
    8700    296.92462   -1062.0318    207.58343    482.90126    194.72739    39993.759 
    8800    293.75671   -1054.2555    210.40613    479.23205     214.9343    39993.759 
    8900    303.63393   -1082.1537    209.03833    494.45307     97.09351    39993.759 
    9000    301.61836   -1105.3647    212.51038    465.63598   -11.754417    39993.759 
    9100    297.99646   -1099.6275    208.02945    450.57921    222.47172    39993.759 
    9200    304.97435   -1070.5841    203.49324    506.51486     285.2207    39993.759 
    9300    296.65716   -1094.9522    211.59376    452.78661    185.21834    39993.759 
    9400    304.73022   -1101.3067    232.33195    503.53137    163.75781    39993.759 
    9500    292.90603   -1034.8986     230.1375    514.48887    374.38593    39993.759 
    9600    296.20759   -1084.4176    230.14319     479.8457    309.88843    39993.759 
    9700    306.60437   -1092.1508     231.0907    519.88723    170.80302    39993.759 
    9800    296.64767    -1087.147    208.80472    457.76001    387.43973    39993.759 
    9900    289.84088   -1105.9766    219.75514      419.223    223.20351    39993.759 
   10000    308.73107    -1108.463    221.20613    503.26915     580.0273    39993.759 
   10100    308.04247   -1116.5319    212.14422    483.03685    479.04457    39993.759 
   10200    295.92777   -1108.9474    218.61549      442.528    72.967625    39993.759 
   10300    298.42014   -1135.0952    225.61577    434.60611    119.33365    39993.759 
   10400    308.48567   -1105.4123    227.55088    511.55931    99.152188    39993.759 
   10500    303.68579   -1144.7503     234.1815     457.2332    29.522134    39993.759 
   10600    306.76317   -1096.0745      231.623    517.21104    599.98257    39993.759 
   10700    303.38912   -1114.5305     235.0268    486.96207     590.5011    39993.759 
   10800    300.60262   -1124.9704    241.27363    470.21867    339.75794    39993.759 
   10900    294.83159   -1099.7825    237.00103    465.14118    181.43768    39993.759 
   11000    299.64442   -1110.1335    251.70994    491.17612    383.25582    39993.759 
   11100    301.84194   -1107.4989    239.76841    491.76679    152.00474    39993.759 
   11200    300.51513   -1089.0258    235.83138    500.32695    226.59661    39993.759 
   11300    301.97598    -1121.756    249.02803    487.37301    100.42442    39993.759 
   11400    297.25919   -1134.5739    248.98887     453.2715    486.30479    39993.759 
   11500    302.83653   -1166.9058    236.95728    434.02841   -16.862629    39993.759 
   11600    302.13267   -1164.9902    247.65343    443.47002    198.83889    39993.759 
   11700    296.43494   -1132.2613    238.22936    441.11224    189.54546    39993.759 
   11800    290.42006   -1128.1725     243.9546    423.83522    268.62147    39993.759 
   11900    302.36677   -1147.9094    249.88303    463.83475     207.2627    39993.759 
   12000    301.63903    -1126.895    246.31738    478.00572   -38.693533    39993.759 
   12100    303.29533   -1140.9968    250.51625    475.56287    603.59854    39993.759 
   12200    298.45961   -1112.1651    246.58974    478.68795    721.35475    39993.759 
   12300    305.59483   -1138.0417    241.89963    480.25831    551.36767    39993.759 
   12400    311.00003   -1104.4733    257.32007    553.59216    427.53124    39993.759 
   12500    295.20406   -1098.2951    244.81828    476.12346    204.58793    39993.759 
   12600    282.15879   -1128.5895    245.92862    388.18342    164.07173    39993.759 
   12700    303.37823   -1132.3268    263.49292    497.58288    280.88011    39993.759 
   12800    295.11778    -1064.717    270.67926    535.17387    419.10923    39993.759 
   12900    307.13949   -1079.8512     245.2187    548.72503    306.80847    39993.759 
   13000    301.03333   -1040.3737    269.74245     585.2241    112.96659    39993.759 
   13100    305.65171   -1060.0669    255.87972    572.46929    120.77996    39993.759 
   13200    302.72771   -1092.6393     246.7945    517.64201    424.05943    39993.759 
   13300    299.07967   -1111.3172    272.04056    507.77942    224.32504    39993.759 
   13400    292.97648   -1103.3894    256.40904    472.58681    159.06858    39993.759 
   13500    310.48868   -1082.1842     273.2573    589.51537    497.87014    39993.759 
   13600    300.53991   -1077.5157    276.89894    553.01619    263.04927    39993.759 
   13700     302.2325   -1111.6337    258.47114    508.09384    367.24315    39993.759 
   13800    305.68041   -1093.4422    261.08182    544.42542    838.39606    39993.759 
   13900    304.56165   -1110.2138    269.22013    530.75325    660.34771    39993.759 
   14000     292.5111   -1103.4075    263.39655    477.46019    797.99459    39993.759 
   14100    306.08549   -1115.8465    280.27555    543.03932    579.55516    39993.759 
   14200    289.86713   -1121.5619    271.35503    455.35578    489.79251    39993.759 
   14300    292.24258    -1132.954    265.80413    449.11182    294.21767    39993.759 
   14400    293.31668   -1180.3461    270.06205    410.81548    261.11839    39993.759 
   14500    300.55883   -1132.5884    253.24253    474.37232    477.76529    39993.759 
   14600    295.72478   -1103.5936    274.05155    502.40352   -35.130938    39993.759 
   14700    304.37712   -1091.2229    281.69534    561.38818    458.81331    39993.759 
   14800    312.11522   -1115.5486    259.40429     549.6239    501.26352    39993.759 
   14900    308.18444   -1137.5623      273.738    524.23971    447.97876    39993.759 
   15000    303.73344   -1124.1262    268.75034    512.64083    304.12083    39993.759 
   15100     295.0278   -1091.8316    274.80068    511.77544    309.33377    39993.759 
   15200    306.85238   -1149.2782    270.23441    503.02051    125.26357    39993.759 
   15300    305.91433   -1153.6122    282.26029    506.48744    284.28258    39993.759 
   15400    297.06649   -1141.1726    257.62023    454.43624    30.382451    39993.759 
   15500    301.84103   -1169.4914    270.57518    460.57699    58.609412    39993.759 
   15600    308.11585   -1161.5683    263.57965    489.76641    478.76457    39993.759 
   15700    296.46633   -1115.1103    270.45349    490.62872    420.53718    39993.759 
   15800    305.10277   -1108.9205    287.94847    553.21203    381.23312    39993.759 
   15900    300.92406   -1100.3612    276.66556    531.66756   -5.3019222    39993.759 
   16000    300.79518   -1072.8718    295.67342    577.58432    218.57375    39993.759 
   16100    296.69207   -1116.2911    281.08331    501.09448    242.14727    39993.759 
   16200    304.04608   -1107.0699    272.90228    535.25712    782.66344    39993.759 
   16300    309.60863   -1123.2121    280.54232    551.80875    916.44041    39993.759 
   16400    301.16589   -1097.2059    276.40187    535.64831    361.06233    39993.759 
   16500    304.50493   -1088.1429    270.55175    553.90026    337.72156    39993.759 
   16600    302.90779   -1112.4966     294.6736    546.47486   -14.554103    39993.759 
   16700    305.50127   -1099.4975    287.11058    563.59199    396.47348    39993.759 
   16800    289.03823   -1104.7157     287.1739    484.28752   -109.10381    39993.759 
   16900    301.66985   -1113.2838    286.26091    531.69932    20.804534    39993.759 
   17000    302.02827   -1102.7051    287.50487    545.13627    179.73033    39993.759 
   17100    290.80495   -1093.7028     299.0148    515.09865    386.91605    39993.759 
   17200      306.009   -1081.5463    299.45766    596.17709    537.41936    39993.759 
   17300    306.80589   -1089.5426    293.03262    585.34502    492.14487    39993.759 
   17400    298.01456   -1090.4243    304.55987    556.39432    151.45069    39993.759 
   17500    301.28033   -1094.7196    294.62539    556.87357    616.32272    39993.759 
   17600     307.2401   -1147.4948    292.91385     529.2297    418.42935    39993.759 
   17700    288.65569   -1169.4745    294.44341    425.07523   -118.16823    39993.759 
   17800    296.60159    -1163.599    283.80329    456.09907   -91.754777    39993.759 
   17900    295.89997   -1190.6242    279.04398    421.15442   -22.688025    39993.759 
   18000    296.75203     -1220.01    297.64408    414.20643    139.66459    39993.759 
   18100    298.69354    -1183.491    276.40651    438.23238    310.19551    39993.759 
   18200     307.3692   -1194.9325    288.18617    477.64577     474.0436    39993.759 
   18300    306.73073   -1166.5502    286.99602     501.9622    507.71634    39993.759 
   18400    294.41706   -1142.1803    293.09599    476.97127    15.064064    39993.759 
   18500    296.94014   -1101.9172    289.95433    525.45672      90.3097    39993.759 
   18600    300.94309   -1127.5415    312.58008     540.4874    -169.1304    39993.759 
   18700    295.85562   -1147.1518     307.4443    492.82746     391.1989    39993.759 
   18800      305.202   -1128.0951      295.567    542.10289    372.03754    39993.759 
   18900    303.49678   -1164.4016    293.97226    496.52136    372.95017    39993.759 
   19000    301.53133   -1154.5054    297.95599    501.54887    190.72621    39993.759 
   19100    294.52263   -1141.0479    305.15656    490.63979    7.0665774    39993.759 
   19200     288.4427   -1136.7179    302.05099    464.48017    342.09761    39993.759 
   19300    296.07545   -1163.2572     311.8015    482.06936    335.05194    39993.759 
   19400     298.9065   -1148.1029    287.33677    485.50988   -96.763886    39993.759 
   19500    293.90004   -1158.6751    302.09899    467.15086    309.55807    39993.759 
   19600    301.48799   -1144.0584    294.86048    508.70525    -18.10048    39993.759 
   19700    305.85249   -1152.3945    304.43058    529.59692    190.79471    39993.759 
   19800    294.27541   -1152.2853    306.86361    479.99598   -176.34266    39993.759 
   19900    298.99183   -1116.6203    323.27475    553.31481    371.07319    39993.759 
   20000    303.53209   -1154.3903    305.60585    518.32531    440.58567    39993.759 
   20100    299.51748   -1165.2967     306.2672    489.99842    623.03354    39993.759 
   20200    308.42692   -1185.1499    303.84988    507.85607    83.004689    39993.759 
   20300    293.79306    -1205.095    298.38691      416.537    98.865466    39993.759 
   20400    304.13851   -1216.5742    297.67391     450.9408    355.87387    39993.759 
   20500    296.94622   -1164.6542    299.13438     471.9271    841.04535    39993.759 
   20600    290.27099   -1228.5681    305.21975    384.03337    157.85444    39993.759 
   20700    303.36415   -1198.1261    309.14076    477.36801    584.18877    39993.759 
   20800    294.08268   -1208.2336    321.34205    437.65798    547.04781    39993.759 
   20900    303.31835   -1246.5883     314.0743    433.63306    410.02551    39993.759 
   21000    295.50433   -1240.2464    320.45826    411.16447    517.72156    39993.759 
   21100    302.07679   -1235.6913    321.16753    446.03126    172.04461    39993.759 
   21200    290.32674   -1196.4483    310.66109     421.8456     294.8494    39993.759 
   21300    302.91108   -1198.7935    295.98305    461.50229   -289.49721    39993.759 
   21400    299.18627   -1239.6978    285.87449    393.71287    22.905491    39993.759 
   21500    293.69694   -1194.1232    304.46528    433.15423   -209.27585    39993.759 
   21600     293.9304   -1191.8043    306.38602    438.44542   -264.89422    39993.759 
   21700    296.68855   -1185.4838    316.98923    467.79183    220.00856    39993.759 
   21800     300.0123   -1180.0982    305.57098    476.72936   -422.59801    39993.759 
   21900    306.21685   -1238.4275    312.17478    452.94923    172.91356    39993.759 
   22000    298.56581   -1230.8315    309.32107    423.23118    75.661319    39993.759 
   22100    295.99568    -1189.345    297.96204    441.78277    184.99039    39993.759 
   22200     296.4305   -1192.9143    309.03733    451.24721    748.62772    39993.759 
   22300    308.71625   -1185.2759    314.08815    519.27147    646.59272    39993.759 
   22400    297.48674   -1201.1319    326.28694    465.03651    392.33573    39993.759 
   22500    305.19749   -1234.3383    301.33003    441.60246    324.39015    39993.759 
   22600    302.54568   -1171.9864    301.92586    492.60636    402.07397    39993.759 
   22700     300.0585   -1210.5604     305.6634    446.56772    355.26409    39993.759 
   22800    295.24942    -1172.884    321.23122    478.15177    2.2532014    39993.759 
   22900    292.95221   -1205.2302    328.04331    442.27099    105.76903    39993.759 
   23000    299.67954   -1212.9895    322.40922    459.17752    217.05358    39993.759 
   23100    310.59629   -1198.5996    306.53876    506.86606    154.89467    39993.759 
   23200    309.70666   -1188.7295    308.19105    514.38155    187.69975    39993.759 
   23300    291.37013   -1176.5691    296.57573    432.33881   -30.788036    39993.759 
   23400    293.89558   -1195.3722    318.53559    446.87028   -26.682411    39993.759 
   23500    299.49191   -1218.3807    316.02056    446.55262    72.227001    39993.759 
   23600    295.14299   -1198.9773     301.6549    432.00282   -238.01736    39993.759 
   23700    288.21768   -1180.5144     323.7366     441.3558   -198.65722    39993.759 
   23800    299.63722   -1211.5978    308.39629    446.36577    -113.5502    39993.759 
   23900    290.58714   -1216.4393    309.01563    401.38198    42.341987    39993.759 
   24000    297.95486   -1207.3036    339.03642    473.72266   -32.244185    39993.759 
   24100    295.55639   -1169.3793     321.5836    483.39146    94.151781    39993.759 
   24200    304.06884   -1168.4575     329.0886    530.15837    302.81442    39993.759 
   24300    301.39354    -1231.019    332.60882    459.06755    230.64345    39993.759 
   24400    301.49966   -1157.8976    325.97001    526.02807    552.81317    39993.759 
   24500    297.73126   -1191.9878    337.13411    486.12905   -6.4641916    39993.759 
   24600    301.74979   -1191.6518     319.3121    486.74258    351.19666    39993.759 
   24700    291.31455   -1230.9546    330.46358    411.59092    4.3757288    39993.759 
   24800    287.86624   -1235.2712    320.10889    381.38842   -76.575935    39993.759 
   24900    298.58442   -1225.6726    340.28096    459.43382    329.17072    39993.759 
   25000    305.18939   -1256.3099    328.13139    446.39571    92.467525    39993.759 
   25100    302.25323   -1205.3053    336.19279    492.23729    289.50623    39993.759 
   25200    302.98782   -1184.7503    335.91943    515.82752    170.78701    39993.759 
   25300    309.01218   -1213.5665    333.39813    511.62373     64.16485    39993.759 
   25400    296.10211   -1213.2124    328.05247    448.48515    605.33043    39993.759 
   25500    288.60448   -1211.9612    342.28492    430.19942     485.2018    39993.759 
   25600    297.54931   -1196.5982    332.51129    476.07639    188.85917    39993.759 
   25700     300.7745   -1209.0143    368.20957    513.88487    860.66934    39993.759 
   25800    290.99606   -1230.8898    334.62696    414.38454    543.32516    39993.759 
   25900    294.00617   -1213.4751    347.14015    457.86998    651.48483    39993.759 
   26000    296.21285   -1187.3553    335.70689    482.49546     569.5647    39993.759 
   26100    309.22836   -1196.7397     345.4401    541.46614    382.70066    39993.759 
   26200    308.28709   -1164.5582    335.58249    559.55052    288.56395    39993.759 
   26300    296.28498    -1180.296    340.10883    494.28159    274.09616    39993.759 
   26400    299.81085   -1180.8657    344.47735    513.96094     116.1918    39993.759 
   26500    301.95264   -1213.7969    354.14081    500.33982    99.459575    39993.759 
   26600    303.25345   -1192.4265    350.28872    523.71696    206.95858    39993.759 
   26700    312.00231   -1183.4092    344.88859    566.73901    348.05544    39993.759 
   26800    300.27875   -1193.1088    341.30449    500.65237    358.49071    39993.759 
   26900     295.1811   -1179.2628    326.30071    476.53479    187.94846    39993.759 
   27000    303.13987   -1139.0462    343.22079    569.51778    172.07634    39993.759 
   27100    304.68295   -1185.6089    350.91667      537.601    91.814901    39993.759 
   27200    286.28439   -1141.5335    348.74119    496.63371   -268.47955    39993.759 
   27300    289.75775    -1150.492    340.64947    495.22755    -387.4777    39993.759 
   27400    292.19389   -1171.0633     339.9914    484.97053   -153.42347    39993.759 
   27500    303.92535   -1203.9257    348.65523    513.61051    185.49928    39993.759 
   27600     300.8434   -1146.7197    360.45522    568.73541    584.68131    39993.759 
   27700    300.39114   -1187.7732    368.41451    533.60419    270.73514    39993.759 
   27800    302.92501   -1212.5428     344.3479    496.18052   -44.171985    39993.759 
   27900    309.92817   -1224.8867    346.38152    517.41247    381.26764    39993.759 
   28000    297.65141   -1212.7129     348.7013    476.61149    48.167286    39993.759 
   28100    306.25447   -1200.7206    355.37458    534.02537    194.00586    39993.759 
   28200     300.2299   -1261.6117    343.85386    434.47881   -221.31966    39993.759 
   28300    307.65379    -1224.772    343.25904    504.16088   -303.31926    39993.759 
   28400    297.13711   -1199.5484    364.96059     503.7189    42.921835    39993.759 
   28500    300.14768   -1212.6343    362.75188    501.98399    1039.6681    39993.759 
   28600     291.9355   -1239.3513    334.82841    410.35579    565.54236    39993.759 
   28700    296.94149   -1242.8849    359.59267    454.13339    320.00437    39993.759 
   28800    300.89251   -1235.3366    345.32709     465.2115    638.01501    39993.759 
   28900    296.89382   -1208.9799    371.01258    499.24365    37.440618    39993.759 
   29000    303.97465   -1229.1853    373.00129    512.91903   -180.77138    39993.759 
   29100    303.15825   -1234.2564    366.22355    497.39309    69.145772    39993.759 
   29200    306.23032   -1253.4882    359.19689    484.97127    178.24035    39993.759 
   29300    302.21489    -1272.341    334.17436    423.01049   -408.28602    39993.759 
   29400    300.15057   -1269.4994    349.79818    432.17817    214.86181    39993.759 
   29500    292.37147   -1226.2046    383.73081    474.36853   -166.21358    39993.759 
   29600    293.16997   -1268.9779     334.4192       385.88   -639.68686    39993.759 
   29700    300.90133   -1274.3349    345.94544    426.87135    19.603347    39993.759 
   29800    297.34183   -1238.3975    361.46732    462.29857   -165.73146    39993.759 
   29900     307.5873   -1229.3379    349.12423    505.16078    73.187828    39993.759 
   30000    296.92806   -1229.8426    373.33134    480.85391   -65.546964    39993.759 
   30100    288.18956   -1222.1551     375.5097    451.36151   -94.360154    39993.759 
   30200    307.93654   -1265.9449    370.19373    491.19622     393.9197    39993.759 
   30300    299.75039   -1251.1515    372.15946    471.08493    190.69544    39993.759 
   30400    290.00171   -1288.0234    362.27938     380.4248   -145.88656    39993.759 
   30500    290.58759   -1282.3585     353.9133    380.36248    29.512563    39993.759 
   30600    295.80565   -1218.2155    400.85727    514.95161    281.67287    39993.759 
   30700    307.46057   -1196.1241    369.67468    558.35422    408.91857    39993.759 
   30800    300.07734   -1219.9607      398.418    530.00684    689.41301    39993.759 
   30900    299.40211   -1262.9367     371.6313    457.20288    202.90496    39993.759 
   31000    303.55864   -1298.6556    348.40743    416.98117    249.95924    39993.759 
   31100    294.21414   -1291.8994     385.0924    418.33463    101.47456    39993.759 
   31200    298.66834   -1263.3588    368.87045    450.71506      213.577    39993.759 
   31300    301.14088   -1290.5723    370.47572    436.24319    294.87111    39993.759 
   31400    300.84149   -1297.4642    367.02589    424.55298    296.13811    39993.759 
   31500    293.05308   -1285.6527    391.94925    426.20883    84.807081    39993.759 
   31600    297.49668   -1277.6564    377.03328    439.30308    190.26181    39993.759 
   31700    303.11883    -1312.097    366.03342    419.18485    414.00174    39993.759 
   31800    304.95064   -1279.9093    380.61583    474.20538    117.97854    39993.759 
   31900    303.58972   -1288.7249    364.19531    442.83971   -31.952454    39993.759 
   32000    293.84772   -1257.3685    365.53763    431.66046   -88.048157    39993.759 
   32100    289.81193   -1197.5744    400.30176    508.04145   -162.74526    39993.759 
   32200    307.85313   -1241.6993    393.26123    538.13369    39.624409    39993.759 
   32300    294.78561   -1254.9171    375.96024    448.75872   -173.54972    39993.759 
   32400    298.30531   -1257.1896     374.2096    460.58827     136.0305    39993.759 
   32500    297.88687   -1275.8745    367.89525    433.70441   -274.33682    39993.759 
   32600    311.22406    -1244.001    359.85933    517.61274   -187.64105    39993.759 
   32700    296.17283   -1280.4625    371.77148    425.27261   -274.06718    39993.759 
   32800    295.46419   -1279.7905    383.00566    433.98708   -49.329196    39993.759 
   32900    304.16886   -1265.7057    386.72912     491.0012    313.28138    39993.759 
   33000    296.28074   -1238.9233    402.86303    498.38933    257.78406    39993.759 
   33100     311.8326     -1251.35    388.76166    541.90691    410.07528    39993.759 
   33200    303.10068   -1238.8732    387.02191    513.31542       138.82    39993.759 
   33300    296.38075   -1246.4167    369.88577    458.36919    434.04735    39993.759 
   33400    295.57143    -1263.662    371.22743    438.82027    169.67996    39993.759 
   33500    306.19733   -1265.9723    355.28338    468.42503   -173.40662    39993.759 
   33600    291.14127   -1277.8867    380.69795    414.11267    96.724041    39993.759 
   33700    291.10717   -1253.2661     374.1983       432.08   -207.64806    39993.759 
   33800    300.70002   -1261.9357       372.82    465.23843   -9.6119764    39993.759 
   33900    297.96045   -1243.9635    372.43343    470.48496    74.617788    39993.759 
   34000    294.51644    -1244.003    371.53796    454.03821    350.98609    39993.759 
   34100     303.3268        -1224    390.10257    532.28769    148.48815    39993.759 
   34200    304.21659   -1284.6551    377.43703    462.97468    737.14556    39993.759 
   34300    307.61683   -1307.2748    386.20566    464.43829    582.84357    39993.759 
   34400    296.80719   -1263.0833    366.30093    440.03844    202.21833    39993.759 
   34500    295.29192   -1237.8559    366.94593    459.08599    155.49035    39993.759 
   34600    297.71166     -1243.95    396.87448    493.81899    389.72447    39993.759 
   34700    288.49574   -1266.5049    380.35668    413.23777   -617.39886    39993.759 
   34800    292.03272   -1269.6689    386.56746    432.21514   -240.22954    39993.759 
   34900    305.69778   -1263.7099    389.13165    502.28582    114.60548    39993.759 
   35000    304.70987   -1283.4679    394.91703    483.86365    29.950362    39993.759 
   35100    298.76054   -1301.7178    380.51812    424.41901    -8.533574    39993.759 
   35200    308.73559   -1261.2245    392.03699    521.35876    917.68194    39993.759 
   35300    304.94161    -1306.018      393.535    460.97524    819.41925    39993.759 
   35400    300.88882   -1323.2667    394.76713    426.70484    980.83696    39993.759 
   35500    297.14459   -1269.5961      390.996    459.74031    902.72555    39993.759 
   35600    306.96455    -1250.779    383.69008    515.48058    324.33449    39993.759 
   35700    298.67005    -1227.396    390.83668    508.65177    248.66481    39993.759 
   35800    297.07326   -1294.0265    404.91795    448.91062   -97.259283    39993.759 
   35900    300.17439   -1277.2368    375.73266    450.48254   -245.64634    39993.759 
   36000    292.51399   -1263.0689    383.31047    437.72576   -588.66324    39993.759 
   36100    307.86519   -1252.5346    401.37959    535.47106   -394.82713    39993.759 
   36200    290.44482   -1269.9727    370.47002    408.66195   -459.74584    39993.759 
   36300    301.86068    -1249.706    360.59201    470.46771   -350.09537    39993.759 
   36400    293.02735   -1267.1955    390.42395    443.02483   -109.04129    39993.759 
   36500      297.038   -1283.3608     387.4864    441.98591   -201.24991    39993.759 
   36600    312.67719   -1283.2438     390.0536     515.1091    274.60867    39993.759 
   36700    308.73199    -1281.237     380.9667    490.25982    212.11894    39993.759 
   36800    295.66395   -1242.9832    382.79755    471.48597    37.107605    39993.759 
   36900    298.76493   -1282.3238    368.31804    431.63269   0.16176522    39993.759 
   37000    294.27202   -1288.7259    377.24346    413.91992    -355.8807    39993.759 
   37100    306.40643    -1277.168    402.95299    505.84074   -424.19699    39993.759 
   37200    304.99834   -1288.8899    394.85467    479.67854    148.69695    39993.759 
   37300    312.97334   -1275.3892    413.89559     548.1396    10.965091    39993.759 
   37400    294.21922     -1270.57    379.81336    434.40792    2.8538812    39993.759 
   37500    292.83887   -1284.9593    381.84103    415.82918   -242.22086    39993.759 
   37600    298.63821   -1324.3125    402.44822    423.20342    415.18502    39993.759 
   37700    299.51671   -1309.3259    403.59837    443.29688    268.71786    39993.759 
   37800    298.56056   -1305.5461    394.00015    433.17204    491.24828    39993.759 
   37900    300.56038    -1283.936    418.14012    487.92929    434.86473    39993.759 
   38000    289.01481   -1337.3374    382.89766    347.28416    211.59563    39993.759 
   38100    306.45929   -1272.9244    391.67145    499.04089    111.21744    39993.759 
   38200    296.90613   -1279.0271    373.98203    432.22131   -38.789857    39993.759 
   38300    292.55482   -1276.3413     408.2491    449.57592    213.72625    39993.759 
   38400    294.40889   -1286.9298    384.92475    424.01375    -309.8239    39993.759 
   38500    292.68439   -1281.5181    409.78182    446.51543   -63.810033    39993.759 
   38600    309.38417   -1297.4602    376.33083    472.33816   -347.91538    39993.759 
   38700    298.24857   -1297.0945    389.33296    435.55123   -355.93362    39993.759 
   38800    301.83767   -1257.7821    377.40412    479.10005   -1104.1519    39993.759 
   38900    300.57269   -1257.9054     393.5725    489.44772   -346.77806    39993.759 
   39000    308.67365   -1240.1557    384.86404    534.97567    217.00647    39993.759 
   39100    299.06391   -1255.1138    388.12109    479.99229   -128.85511    39993.759 
   39200    297.79512   -1294.7243    368.31696    414.86302   -222.14769    39993.759 
   39300    295.98825   -1248.6345    376.99563    461.49338    389.09357    39993.759 
   39400    307.48605   -1254.0631    389.51159    520.36687    795.78316    39993.759 
   39500     301.5725   -1248.1804    397.72768    507.83099    465.10584    39993.759 
   39600    301.86409   -1235.8819    391.82499    515.54021    664.10493    39993.759 
   39700    308.48113   -1235.0093    404.66655    559.05749    526.27819    39993.759 
   39800    296.56439   -1251.3935    406.69502    491.02873    438.28748    39993.759 
   39900    301.21815   -1258.8237    411.07081     508.9349   -26.078401    39993.759 
   40000    309.66345   -1238.2318    374.81585    531.30948     319.1069    39993.759 
   40100    298.80258   -1254.7376    378.10825    469.17872    526.76264    39993.759 
   40200    302.42108   -1240.0682    388.38684    510.42433    628.11621    39993.759 
   40300    302.61057   -1227.0088    384.70931    520.65973    323.58855    39993.759 
   40400    303.80263   -1220.1107    400.65852    548.87605    742.23999    39993.759 
   40500    290.52645   -1226.9605    412.81581    494.38758    127.29499    39993.759 
   40600    286.56745   -1218.9568    405.43683    477.18097   -609.46799    39993.759 
   40700    303.38428   -1215.0426    397.02399    548.42537   -502.79258    39993.759 
   40800    288.91575   -1266.0838    396.98852    432.18244   -441.34595    39993.759 
   40900    301.99931   -1251.0051    396.24209     505.4431   -419.26087    39993.759 
   41000    290.64894   -1198.6786    394.42221    504.82759    291.62283    39993.759 
   41100    293.28407   -1219.8803    375.00142    476.07375     -229.248    39993.759 
   41200    302.76432   -1256.3776    385.12334    492.39748    -911.2121    39993.759 
   41300    300.24252   -1252.8366    407.41001    506.86694   -305.51114    39993.759 
   41400    306.44599   -1200.4755    407.02274    586.78114     -87.4749    39993.759 
   41500    298.90771   -1230.2739    390.61901    506.62665   -720.08328    39993.759 
   41600    295.13081   -1202.8997    413.52668    539.89738   -433.70119    39993.759 
   41700     306.1769   -1218.4461    376.92163    537.49747   -124.19111    39993.759 
   41800    294.88977   -1207.4363    414.74771    535.49614   -615.00039    39993.759 
   41900    301.82417   -1241.4536    414.16027    532.12391    9.6217316    39993.759 
   42000    300.56813   -1256.9995    419.29408     516.0546    70.330236    39993.759 
   42100    306.04794   -1242.4503    411.43836    547.42921   -188.12145    39993.759 
   42200    306.53244   -1252.7673    424.88707    552.74307   -21.433552    39993.759 
   42300    289.81062   -1261.9624    406.18546    449.53127    447.38085    39993.759 
   42400    301.64999    -1277.698    390.22178    471.15651    483.35511    39993.759 
   42500    296.54517   -1235.0304    386.06921    486.67949    354.74138    39993.759 
   42600    295.76068   -1249.2155    375.79755    458.68932    362.93322    39993.759 
   42700    295.67342   -1275.7587    391.22499    447.18053    307.58894    39993.759 
   42800    302.55414   -1252.0095    408.99961    519.69512    174.45088    39993.759 
   42900    299.73816   -1232.4086    398.05166    515.66491    27.042423    39993.759 
   43000    302.31338   -1252.7791    417.18035     526.0219     88.76246    39993.759 
   43100    295.14618   -1250.7639     390.4343    469.00996    15.875006    39993.759 
   43200    297.25503     -1263.98    401.30269    476.16053   -17.709587    39993.759 
   43300    307.36308   -1231.7229    403.27618    555.91777   -670.60934    39993.759 
   43400    295.74147   -1268.5297    366.61538    430.10651   -563.94577    39993.759 
   43500    301.64875   -1269.5917    387.71515    476.75059   -459.10233    39993.759 
   43600    298.85854   -1269.7244    396.70915    473.04483    -534.5702    39993.759 
   43700    312.22378   -1294.3487    400.59615    512.50463   -191.81587    39993.759 
   43800    284.04045   -1296.0813    358.76981    342.00787    181.38013    39993.759 
   43900    314.95939   -1265.6299     390.9285    543.87696    226.90903    39993.759 
   44000    290.40169   -1270.9194    391.07003    428.12105    358.47867    39993.759 
   44100    311.94038   -1281.6032    395.60578    518.98324    497.90416    39993.759 
   44200    301.18955   -1277.3479    404.41445    483.62551    358.62747    39993.759 
   44300    292.64553   -1312.6173    386.30459    391.76393     159.8345    39993.759 
   44400    302.55244   -1312.3691     390.9153    441.24356   -213.93165    39993.759 
   44500    300.19455   -1329.4036    384.76946    407.44333   -234.98829    39993.759 
   44600     303.8467   -1296.6555    410.72772    482.59892   -247.36373    39993.759 
   44700    304.66135   -1308.1226      398.326    462.39928   -125.09265    39993.759 
   44800    290.16571   -1355.8149    401.98785    353.08046   -201.34536    39993.759 
   44900    305.58899   -1305.7935    393.54742    464.12796   -318.09659    39993.759 
   45000    301.11365   -1296.3733    394.73492    454.57876   -30.962202    39993.759 
   45100    294.22149   -1300.4661    385.59634    410.30499    -275.4383    39993.759 
   45200     302.7756   -1236.1612    402.87195    530.41321    602.53521    39993.759 
   45300    309.11052   -1243.2813    400.48775    549.44143    237.06242    39993.759 
   45400    304.24024   -1214.9418    420.79235    576.14983    116.17741    39993.759 
   45500    302.51867   -1262.9397    404.81425    504.41988    442.74451    39993.759 
   45600    294.85553    -1260.241     391.4512    459.24062   -317.94094    39993.759 
   45700    300.72338    -1206.806    408.42723    556.08049   -423.76052    39993.759 
   45800    304.69089    -1242.807    405.89021    535.41217   -940.05015    39993.759 
   45900    294.28834   -1251.4195    405.87862      479.935   -1011.2527    39993.759 
   46000    305.09161    -1248.183    392.78398    518.73479   -661.39101    39993.759 
   46100    293.04786   -1231.7948     399.2512    487.34515   -466.17116    39993.759 
   46200    295.76219    -1229.881    401.93119     504.1643    212.69828    39993.759 
   46300     308.1559    -1255.143    413.84855    546.64094   -205.98844    39993.759 
   46400    294.79511   -1266.1697     403.6723    465.26097    164.85353    39993.759 
   46500    296.14158   -1251.9704    395.34455    477.19703   -545.72516    39993.759 
   46600    297.36471   -1301.9782    401.02135    438.37497    150.50288    39993.759 
   46700    296.95301   -1267.9862    380.16716    449.65847   -491.70494    39993.759 
   46800    302.66096   -1283.2821     403.1539    483.05799    28.482898    39993.759 
   46900    306.05702   -1262.0684    395.08325    511.49695   -98.098035    39993.759 
   47000    302.92659   -1250.5537    425.45604    539.28488    -557.3478    39993.759 
   47100    302.17205   -1281.2465    401.70641    481.44398    76.389008    39993.759 
   47200     299.0505   -1318.1727    378.59166     407.3436   -114.18567    39993.759 
   47300    290.16659   -1318.6762    369.80902    358.04429   -93.715868    39993.759 
   47400    308.46809   -1312.4078    396.01108    472.94475   -45.523924    39993.759 
   47500    287.79739   -1330.6108    425.45399    391.08376    14.890174    39993.759 
   47600    298.20104   -1299.6157    425.70073    469.18372   -181.85625    39993.759 
   47700    296.05441   -1280.8405    406.15054    458.74033    286.58692    39993.759 
   47800    298.41794   -1299.0828    413.11271    458.10547    211.09734    39993.759 
   47900    302.18282   -1279.8385    399.91559     481.1097    -21.06673    39993.759 
   48000    289.41468   -1291.4459    401.73869    413.81769    150.16926    39993.759 
   48100    305.97675   -1292.9114    417.27711    502.48619    460.88786    39993.759 
   48200    307.26294   -1272.3643    421.23471    532.78392    416.46225    39993.759 
   48300    295.60659   -1312.4144    429.61698    448.61585     489.2829    39993.759 
   48400    301.25849   -1305.4677    412.82573    464.22753    552.55048    39993.759 
   48500    306.15044   -1314.4907    424.27176    488.68383    373.16249    39993.759 
   48600    303.15008   -1287.6101     416.0139      493.793    206.64905    39993.759 
   48700    287.19418   -1306.8128    434.90069     421.6116    270.12039    39993.759 
   48800    300.32553   -1292.5462    419.71257    479.83376    40.758668    39993.759 
   48900    300.94709   -1241.0891    412.43171    526.80948   -130.87884    39993.759 
   49000    285.77576   -1262.3829    396.73983    421.49207    1.5408527    39993.759 
   49100    301.79681   -1311.2987    421.98434    469.97969   -232.16124    39993.759 
   49200    302.31629   -1296.1073    413.84604    479.37247   -472.55931    39993.759 
   49300    297.37704   -1339.8426    398.01296    397.55775   -623.26338    39993.759 
   49400    298.07255     -1291.36    396.00948    447.16944   -1332.2172    39993.759 
   49500    302.08093   -1290.2468    410.16209    480.48906   -1361.3524    39993.759 
   49600    292.05381   -1297.8464    408.22083    425.78598   -1120.9825    39993.759 
   49700    305.99024   -1288.1517    399.23684    489.26636   -270.87167    39993.759 
   49800    305.13595   -1293.6443    421.84609    502.53536   -143.71436    39993.759 
   49900    285.79932   -1281.2728    387.97675    393.94517    -488.8754    39993.759 
   50000    296.44395   -1301.0897     415.9585    450.05355   -718.87362    39993.759 
   50100    297.18366   -1323.3178    399.00866     414.2073   -738.40597    39993.759 
   50200    303.53211   -1303.4372    392.31228    455.98492   -629.99739    39993.759 
   50300    291.82308   -1355.8208    419.15153    377.70306   -860.07357    39993.759 
   50400    300.39969   -1328.7065    426.17961    450.47447   -230.89255    39993.759 
   50500    298.32259    -1326.091    412.41484    429.97004    4.9302477    39993.759 
   50600     304.9184   -1315.2635    387.83841    445.92864    502.81318    39993.759 
   50700     291.2565    -1345.897    403.34499    369.26842    179.16073    39993.759 
   50800    290.88866   -1342.6147    413.40742    380.95647   -370.21427    39993.759 
   50900    300.17019   -1336.3357       403.44    419.07205     383.6464    39993.759 
   51000    307.59346   -1299.8442    399.12449    484.68249   -347.14661    39993.759 
   51100    306.40459   -1311.3998    425.39263    494.04034   -256.59304    39993.759 
   51200    304.40332    -1312.258    406.01084    464.78659     -52.0121    39993.759 
   51300    300.42806   -1356.3261    410.79631    407.59941    424.04111    39993.759 
   51400    302.05965   -1319.0889    419.72024    461.10919    943.69118    39993.759 
   51500    292.10954   -1343.3313    408.64021    380.97143    1147.9258    39993.759 
   51600    301.76075   -1356.1028    410.26926    413.29804    827.34409    39993.759 
   51700    309.09917   -1338.1394      401.033    455.07747     597.3581    39993.759 
   51800     305.3581   -1323.5501    408.15772    459.94174    284.08374    39993.759 
   51900    302.97561   -1279.5978    403.06992    488.07553    22.576961    39993.759 
   52000    304.53861   -1319.5121    408.83479    460.96584      87.7493    39993.759 
   52100     301.4995   -1299.1669    406.42058    465.20858    -58.41009    39993.759 
   52200    297.61921   -1334.9332    400.11013    405.65504   -115.53232    39993.759 
   52300    292.72989   -1338.4263    419.31611    399.34641   -146.07969    39993.759 
   52400    302.37582   -1298.3512     411.1263      474.677    -214.2612    39993.759 
   52500    310.90073   -1271.3826    424.71033    553.62585    319.84297    39993.759 
   52600    294.59524   -1315.0299    439.38636    451.21457   -213.83387    39993.759 
   52700    296.33841   -1306.0895    411.78653    440.40643   -124.89865    39993.759 
   52800    292.26733   -1327.9836    419.85839    408.24803    230.06027    39993.759 
   52900     306.7869   -1322.2655    408.79455    468.29849    588.40533    39993.759 
   53000    291.66727   -1308.0713    395.31845    400.91775   -185.90826    39993.759 
   53100    302.53402   -1287.6706    423.91613       498.86   -180.84336    39993.759 
   53200    308.78591    -1311.963    413.72094    492.53094    25.381549    39993.759 
   53300    293.87618   -1266.8773    425.73225    482.47443   -383.75143    39993.759 
   53400    288.12796   -1285.0659    407.75031    420.41391   -144.99109    39993.759 
   53500    310.32274   -1326.8815    408.63571    479.44908    117.17756    39993.759 
   53600    298.48121   -1290.5633    424.26887    478.06616    196.32732    39993.759 
   53700     299.7031   -1304.7021    412.57867    457.74057    465.45266    39993.759 
   53800     308.2716   -1316.1768    426.76381    499.04345     505.2038    39993.759 
   53900    297.94733   -1348.4129    427.14746    420.69055    137.09351    39993.759 
   54000    303.57475   -1369.0734    398.02297    396.25152    220.64973    39993.759 
   54100    310.75454   -1317.5659    417.38042    499.45421    86.699288    39993.759 
   54200    291.35019    -1318.912    404.92983    398.26023   -305.24617    39993.759 
   54300    310.36329   -1329.9443    393.80244    461.73566   -171.67057    39993.759 
   54400    301.19815   -1338.3412    424.92616    443.18259    33.158518    39993.759 
   54500    295.24475   -1319.3902    398.00479     408.3981    42.002437    39993.759 
   54600    302.44219   -1336.4942    412.62817    438.33484   -131.40459    39993.759 
   54700    311.15065   -1324.2767    423.99599    501.14304    4.8053762    39993.759 
   54800    298.18636   -1319.5083    429.41383    452.93809   -67.981171    39993.759 
   54900    294.91829    -1320.935    424.11008    431.48829   -257.28504    39993.759 
   55000    288.12236   -1295.1031    441.02742    443.62859   -126.60299    39993.759 
   55100    290.47276   -1343.0451    424.43942    389.68485    14.609037    39993.759 
   55200    303.65303    -1342.411    447.72833    472.97176   -34.259496    39993.759 
   55300    294.15793   -1325.7446    430.12486    429.26876   -178.82089    39993.759 
   55400    302.19427   -1364.5056    436.00284    432.58147      132.617    39993.759 
   55500    292.13516   -1355.5787    414.79438     374.9936    83.472273    39993.759 
   55600    301.61883   -1310.9909    428.79763    476.29913   -237.79988    39993.759 
   55700    284.97131    -1342.039    425.41222    366.88517   -66.665936    39993.759 
   55800    305.40517   -1381.3398    405.17152    399.37787    114.63543    39993.759 
   55900     306.9283     -1356.06    411.85388    438.20023   -38.946979    39993.759 
   56000    303.15348   -1386.1561    396.93099    376.17934   -323.02504    39993.759 
   56100    302.93892   -1328.1389     406.5919    442.89109    247.85993    39993.759 
   56200    285.89901   -1351.2031    411.15626    347.64341   -298.23887    39993.759 
   56300    292.45492   -1340.4915      412.959    389.68559     130.6275    39993.759 
   56400    298.40106   -1386.4157    409.70325    367.28712   -318.88762    39993.759 
   56500    297.95708   -1340.3491    393.21602    394.86678    127.90639    39993.759 
   56600      287.196   -1369.8019    401.87722    325.60722    150.92985    39993.759 
   56700    298.91298   -1361.8208    443.60016    428.08464     276.2651    39993.759 
   56800    310.77003   -1377.4607    443.24809     465.4968    257.77295    39993.759 
   56900    297.98065   -1300.6079    433.87886    475.37699   -36.802644    39993.759 
   57000    313.07387   -1300.6924    412.37614    521.76968   -272.92152    39993.759 
   57100    294.68448   -1328.2819    396.02933    395.00749   -662.34193    39993.759 
   57200     302.0879   -1318.0118    420.46002     463.0533   -254.13819    39993.759 
   57300     303.2941   -1330.1619    415.16726    451.04318    493.84246    39993.759 
   57400    305.62657   -1344.7034    418.09471    449.93459    359.33426    39993.759 
   57500    300.94161   -1358.4764    425.74431     422.7101    162.39483    39993.759 
   57600    306.59892   -1354.8307    417.39148    443.48358    74.904981    39993.759 
   57700    308.96228   -1377.6509    405.79296    419.70937    112.70555    39993.759 
   57800    284.97197   -1431.5569    414.58872    266.54675   -341.44735    39993.759 
   57900    299.08498   -1399.2308    408.33141     356.1805   -169.73347    39993.759 
   58000    295.26972   -1377.9671    415.87751    367.80634    180.29826    39993.759 
   58100    299.70614   -1400.4123    405.73416     355.1995   -311.07124    39993.759 
   58200     311.3201    -1383.663    412.50586    431.02982    90.334698    39993.759 
   58300    314.21727    -1386.271    423.93238    452.89722   -399.81346    39993.759 
   58400    295.53152   -1412.0538    409.14627    328.16762   -323.33281    39993.759 
   58500    291.75926   -1384.5134    404.60216    334.17358    -698.8128    39993.759 
   58600    295.58095   -1408.9422    400.86887    323.22451   -379.50867    39993.759 
   58700    291.85467   -1395.9043    427.43855     346.0489    19.039763    39993.759 
   58800    308.03113    -1384.884    415.65055    418.14001   -17.262474    39993.759 
   58900    297.90915   -1362.8899    435.34045    414.23452   -98.843817    39993.759 
   59000    312.12661   -1370.0719    416.95275    452.70031     623.6703    39993.759 
   59100    303.53509   -1368.2736    433.51543    432.36512    574.22612    39993.759 
   59200    290.01288   -1375.4597    415.58125    346.34073   -348.05748    39993.759 
   59300    302.60457   -1382.4011    402.48736    383.01848   -163.68495    39993.759 
   59400     304.3583   -1414.1046     384.8254     341.5518   -498.18139    39993.759 
   59500     297.0393   -1400.8015     404.9056    341.97026   -206.56782    39993.759 
   59600    303.67896   -1332.3044     422.4863    457.95314   -667.10067    39993.759 
   59700    302.60251   -1307.5329    435.12642    490.51644   -355.52307    39993.759 
   59800    296.44254    -1292.696    461.34179     503.8242   -26.607001    39993.759 
   59900    303.54835   -1333.9472    429.10661    462.34242   -377.18846    39993.759 
   60000     294.5171     -1380.34     410.7342    356.90039   -617.20024    39993.759 
   60100    304.39814   -1387.2549    423.77243    407.52799   -378.68377    39993.759 
   60200    292.73018   -1353.0122    406.64273    372.08836   -493.02356    39993.759 
   60300    298.45722   -1343.8691    428.77894     429.1624    178.59288    39993.759 
   60400    300.95547   -1328.5956    432.18711    459.09617    372.27955    39993.759 
   60500    299.05715   -1329.0804    406.73608    424.61027    389.82605    39993.759 
   60600     291.4264   -1327.4517    416.34387    401.47789     587.3683    39993.759 
   60700    303.00193    -1303.643    430.01858    491.09744    673.26782    39993.759 
   60800    304.53703    -1329.878     427.3274    469.08536    1038.4716    39993.759 
   60900    300.09102   -1375.0259    408.04082    384.62601    549.32133    39993.759 
   61000    304.06797   -1409.2264    407.73151    368.02847    712.09468    39993.759 
   61100    299.22928   -1378.1857    403.34191    372.88611    507.14542    39993.759 
   61200     304.7572   -1343.6155    400.58845    429.60054    141.11247    39993.759 
   61300    296.80029   -1359.2326    410.62949    388.18656    327.00234    39993.759 
   61400    299.47161   -1343.9975    430.09768    434.92147    688.87628    39993.759 
   61500     307.1756   -1377.8714    447.54052    453.18923    313.30219    39993.759 
   61600     305.4535    -1344.556    421.20667    452.41443    80.152613    39993.759 
   61700       297.22   -1318.8216     452.3562    472.21468    166.43895    39993.759 
   61800    299.80487   -1336.6749    427.80974    441.45715   -81.550441    39993.759 
   61900    289.33302   -1346.6284    432.29774     388.8264    145.25109    39993.759 
   62000    308.88346   -1341.0587    424.98267    475.13632    394.85469    39993.759 
   62100    304.41232   -1361.8374     433.6749     442.9118    390.42269    39993.759 
   62200    308.16361   -1329.6704    415.64011    473.93985    693.27692    39993.759 
   62300    299.79136   -1345.9928    404.16498    408.43369   -181.63104    39993.759 
   62400    299.11976   -1360.0497    410.80409    397.99096    274.29179    39993.759 
   62500    293.77533   -1367.7349    422.74088    378.17128    107.68194    39993.759 
   62600    306.25482   -1333.0525    448.74837    495.06882    67.569873    39993.759 
   62700    292.53121   -1359.8842    423.46491    381.14246   -36.778191    39993.759 
   62800    294.05192   -1322.4345    418.00585    419.98238   -373.37825    39993.759 
   62900    304.61472     -1329.12    415.58338    458.44936   -133.03216    39993.759 
   63000    304.18642   -1368.2726    423.48075    425.26499    -104.7678    39993.759 
   63100    305.61725   -1346.9243     420.3971    449.97407    13.408373    39993.759 
   63200    309.05785   -1381.2648    415.74654    426.47951    445.06146    39993.759 
   63300    296.78686   -1362.9007    416.74223    390.57067    233.58283    39993.759 
   63400    310.23219   -1305.2052    425.67192    517.75372    161.96023    39993.759 
   63500    292.25053   -1351.1716    435.84359    400.96956   -212.79297    39993.759 
   63600    291.25122   -1340.1774    427.40484    399.02414   -321.44805    39993.759 
   63700    312.13521   -1323.0442    407.98308    490.79715   -217.00447    39993.759 
   63800    298.78087   -1378.4681     417.0619    384.30398   -415.88206    39993.759 
   63900      292.062   -1372.6853    414.97555    357.73868   -120.23313    39993.759 
   64000    306.12313   -1372.1286    413.91595    420.56712    153.37608    39993.759 
   64100    293.84513   -1380.2126    431.28836    374.55537   -26.784291    39993.759 
   64200    307.93585   -1369.8822    417.41171    434.47384    31.347428    39993.759 
   64300    297.29587   -1356.1855    435.93718     418.7735    98.654801    39993.759 
   64400    298.84701   -1376.3637    419.96377    389.60824   -371.69786    39993.759 
   64500    302.63717   -1396.1347    430.47363    397.41797    59.539968    39993.759 
   64600    294.78675   -1360.1809    433.56889    401.10872   -112.62981    39993.759 
   64700    296.64516   -1402.6337    432.30505    365.76234   -42.789008    39993.759 
   64800     297.9577   -1400.5785    439.70121     381.1254    196.71259    39993.759 
   64900     300.2166   -1404.0711    427.23955    375.34517   -13.985099    39993.759 
   65000    303.20603   -1382.7765    415.16519    398.02986    470.28738    39993.759 
   65100    289.33562   -1393.7891    425.37409    334.75379    154.72726    39993.759 
   65200    292.54601   -1399.8207    413.97874    331.78643   -655.97655    39993.759 
   65300    303.39087   -1370.3258    403.84452    399.99243   -522.21251    39993.759 
   65400    306.09696   -1382.1496    414.38204    410.89433   -716.54807    39993.759 
   65500    297.38577   -1390.8765    418.51759    367.06774   -659.92387    39993.759 
   65600    289.85583   -1429.8873     429.1226    304.74714   -407.21113    39993.759 
   65700    306.40029   -1360.5094    444.18615    463.70494   -310.33924    39993.759 
   65800    287.48759   -1380.1922    421.69419    336.34725    177.46692    39993.759 
   65900    311.35558   -1424.6918    411.63396    389.28891    234.87046    39993.759 
   66000    306.08078   -1406.8265    419.22576    390.98833    183.28468    39993.759 
   66100    309.06218   -1366.5186    437.27835    462.77703    204.34724    39993.759 
   66200    299.43074   -1384.3794    425.16891    389.42676    484.02423    39993.759 
   66300    303.74333   -1365.6385    452.01226    454.43487    358.04655    39993.759 
   66400    299.25125   -1344.7738    442.93748    445.99248    183.72878    39993.759 
   66500    301.57137   -1296.9998    446.71669    507.99558     200.9273    39993.759 
   66600    302.88235   -1323.9206    431.21769    471.48039    3.6152447    39993.759 
   66700    297.52679    -1400.465    430.80792    370.40478    29.433363    39993.759 
   66800    292.51719   -1407.8482     415.8277    325.47812   -68.878899    39993.759 
   66900     300.5084   -1392.1668    439.40817    400.73244   -111.39496    39993.759 
   67000    294.00297   -1384.1521    424.17712    364.21559    127.34137    39993.759 
   67100    306.14478   -1414.4564    433.06852    397.48943    84.183296    39993.759 
   67200    297.10802   -1359.1531    428.26247    407.28504    491.59286    39993.759 
   67300    293.44943   -1347.8545    440.68654    414.52943    869.74214    39993.759 
   67400    290.39249   -1368.6211    444.80787    384.11568    619.55548    39993.759 
   67500    305.71382   -1400.7591     429.1987    405.37583     376.5143    39993.759 
   67600    295.74027   -1410.2484    419.66124    341.42824     19.86102    39993.759 
   67700    303.69181   -1386.1007     427.3393    409.06771   -22.139237    39993.759 
   67800    300.84996     -1419.15    451.87723    387.75668   -76.099958    39993.759 
   67900    300.20684   -1392.5531    450.95571    410.53542   -544.42496    39993.759 
   68000    296.35677   -1403.6403    428.05418    359.20593    53.305778    39993.759 
   68100    302.82874   -1369.5152    434.25601    428.68273   -415.46782    39993.759 
   68200    303.43828   -1348.7023    424.59201    442.57698   -136.52703    39993.759 
   68300    307.41001   -1337.1228    448.03486    495.48798   -102.03037    39993.759 
   68400    304.97889   -1328.9517    437.32232    481.99671    54.513495    39993.759 
   68500    301.64319   -1303.7704     453.3903    508.22202    73.317634    39993.759 
   68600    307.81556   -1355.9642    412.99459    443.43293    82.825382    39993.759 
   68700    307.61597   -1377.0615    437.38432    445.82644    538.08751    39993.759 
   68800    308.85986   -1365.8582    429.86822     455.1161    422.92198    39993.759 
   68900    299.32475   -1323.0999    438.86099    463.92092    566.20507    39993.759 
   69000    304.18352   -1340.2661    437.22793    467.00558    29.987349    39993.759 
   69100    306.77266   -1322.7402    417.28937    476.25451    -219.1208    39993.759 
   69200    297.40192   -1340.1685    435.07938    434.41032   -221.24672    39993.759 
   69300     296.7464   -1339.8796    432.61297     429.2803    359.71977    39993.759 
   69400    307.56212   -1358.7728    432.28917    458.77735    -73.22724    39993.759 
   69500    298.17015   -1390.6807    441.50066    393.77951   -149.84448    39993.759 
   69600     302.3103    -1355.363    421.87041    428.11423    166.78341    39993.759 
   69700    295.26161   -1409.8874    428.89233    348.86438    535.80371    39993.759 
   69800    294.46935   -1379.9152    444.64027    391.01618     327.7581    39993.759 
   69900    291.70122   -1306.5192    469.49062    476.79485   -47.721199    39993.759 
   70000     297.1679   -1389.2728     441.0641     390.2367   -51.984503    39993.759 
   70100    306.37998   -1353.3697    408.95234    435.51929     -10.0414    39993.759 
   70200    311.06946   -1340.0806    439.11965    500.09714   -534.02714    39993.759 
   70300     298.9551   -1347.2464    438.35217    437.60071   -34.279257    39993.759 
   70400    296.42542   -1382.6719    435.47857    387.90788   -239.14383    39993.759 
   70500    305.37902   -1388.9795    423.16067    409.60945   -402.08213    39993.759 
   70600     298.2601     -1390.52    418.89735    371.74202   -530.92768    39993.759 
   70700    289.32661   -1349.5016    448.67184    402.29846   -285.63795    39993.759 
   70800    303.31833   -1358.1808    432.85427    440.82042   -158.24996    39993.759 
   70900    298.28764   -1366.4277    429.79048    406.85149    75.788143    39993.759 
   71000    295.70035    -1389.025    428.41411    371.22467    70.843304    39993.759 
   71100    294.09933   -1391.7735    423.82108    356.67214   -48.216386    39993.759 
   71200    284.44321   -1398.9908    427.69839    309.84095    -472.4835    39993.759 
   71300     312.0124   -1347.3966    429.07793    486.98645   -329.10796    39993.759 
   71400    314.58687    -1375.226    460.66735    502.34185    173.38717    39993.759 
   71500    291.06167   -1389.5224     426.1521    347.57261    331.23842    39993.759 
   71600    295.18825    -1380.283    468.85766    418.10374    113.13421    39993.759 
   71700    297.96827   -1350.3758     414.4307    406.10517    929.44044    39993.759 
   71800    287.57682   -1356.0061    435.53539    374.77649    528.99847    39993.759 
   71900     301.6807   -1375.1537    459.22857    442.84592    587.35347    39993.759 
   72000    293.25213   -1335.0575    441.42194    427.17318    554.56618    39993.759 
   72100    294.26742     -1314.79    458.45041    469.04208    314.47676    39993.759 
   72200    310.73424   -1362.0465    418.09877     455.6005    170.36655    39993.759 
   72300    288.36198   -1328.0554    405.26391    375.99202     144.4231    39993.759 
   72400    309.54277   -1345.0006     461.7561    510.93737   -72.637941    39993.759 
   72500    305.75043   -1350.2839    434.57138    461.38866   -194.28151    39993.759 
   72600    296.65259   -1388.6423    432.46283    379.94496    299.02155    39993.759 
   72700    297.08284   -1268.7314    427.17973    496.51067    190.38851    39993.759 
   72800    309.12576   -1322.0044    443.73828    514.03754    201.93343    39993.759 
   72900    306.13861   -1326.2251     429.9084    482.53283    694.80691    39993.759 
   73000    310.08797   -1347.6519    436.40921    485.39478      637.519    39993.759 
   73100    295.25609   -1376.3208    453.12319    406.63699    281.47958    39993.759 
   73200    300.36575   -1375.0149    460.41401    438.24763    145.83771    39993.759 
   73300    294.47276   -1307.7923    433.52034    452.03453    31.943779    39993.759 
   73400    301.32681   -1372.1179    455.79411     440.8533    752.97132    39993.759 
   73500    309.59001   -1381.6622    441.22187    453.95435    576.29221    39993.759 
   73600    297.17144   -1369.0124    436.77579    406.22475    335.81613    39993.759 
   73700    290.15451   -1371.4474    443.01761    378.42726    591.61193    39993.759 
   73800    303.95639   -1348.6915    446.15116    466.48051    280.04897    39993.759 
   73900    293.06045   -1348.6008    458.51083    429.85541    158.52148    39993.759 
   74000    288.30304   -1351.1914    447.19552    394.52218   -281.20295    39993.759 
   74100    302.53767   -1370.9199    425.58728    417.29825   -675.15411    39993.759 
   74200    297.96517   -1411.9298    412.51219     342.6187   -476.92839    39993.759 
   74300    313.80277   -1365.4143    430.65297    478.60759   -191.39842    39993.759 
   74400    303.46874   -1372.9122    424.48742    418.39958    -160.7351    39993.759 
   74500    299.14271    -1398.716    439.26409    387.88807    -209.5945    39993.759 
   74600    296.33654   -1389.8632     439.4664    384.30417    296.35745    39993.759 
   74700    306.13451   -1404.5444    408.15178     382.4384    96.455427    39993.759 
   74800    292.20871   -1422.8423    447.54239    340.80927   -111.25208    39993.759 
   74900     300.6693   -1344.8477    453.38163    462.74971    113.67291    39993.759 
   75000    304.27187   -1349.4817    437.92095    458.88092   -301.66508    39993.759 
   75100    306.34383   -1363.4601    442.82343    459.13713    124.47807    39993.759 
   75200    298.97635    -1355.471    436.74116    427.86082   -22.811239    39993.759 
   75300    295.38126   -1365.7236    436.18326    400.85804    26.912639    39993.759 
   75400    305.88156   -1393.4314    410.82409    395.08443    200.91366    39993.759 
   75500    302.76271   -1383.3676    446.44728     426.7241    -294.6163    39993.759 
   75600    309.85168   -1344.9385    451.59252    502.22718    141.47537    39993.759 
   75700    300.49046   -1339.5339    453.90985    467.78617    142.67122    39993.759 
   75800    293.42282   -1379.2201    444.95713    387.31454   -24.077186    39993.759 
   75900    308.12968   -1368.5903     431.3636    450.59057    -255.1988    39993.759 
   76000    293.89799   -1429.2403    433.51198    327.98938   -164.88656    39993.759 
   76100    299.35605   -1401.5855      437.023    383.73832    39.932769    39993.759 
   76200    303.50004   -1399.2122    442.58168    410.33487    223.02104    39993.759 
   76300    297.23773   -1418.5361    446.07712    366.30095    199.92022    39993.759 
   76400    305.76001    -1398.729    432.42931    410.84456   -390.86937    39993.759 
   76500    291.53567   -1367.1509    453.50178    399.42873   -25.731912    39993.759 
   76600    311.86088   -1374.3837    452.51838     482.7573   -234.12358    39993.759 
   76700    309.01905   -1391.0633    439.22265    439.98242    140.10535    39993.759 
   76800    305.91253    -1405.332    450.58379    423.08306    552.93869    39993.759 
   76900    302.40041   -1391.9811    447.89477    417.92635    531.97096    39993.759 
   77000    299.12205   -1416.4825    439.81131    370.57573   -136.76703    39993.759 
   77100    306.27984   -1411.4205    433.21368    401.27876    387.82457    39993.759 
   77200    303.06949    -1373.092    442.87852    434.81273    40.679543    39993.759 
   77300     290.5697   -1361.3493    452.49813    399.87587    154.98136    39993.759 
   77400    291.16265   -1380.2604     446.1472     377.2845   -24.220755    39993.759 
   77500    309.33609   -1366.3931    450.04943    476.90728    411.30694    39993.759 
   77600     312.8906   -1388.3313    438.92105    459.85024    419.53823    39993.759 
   77700    287.14157   -1371.9788    462.21099    383.51897    699.13564    39993.759 
   77800    307.50368   -1360.1286     443.7098    468.57899     786.2438    39993.759 
   77900    307.67505   -1347.8944    447.14069    485.01593    66.978673    39993.759 
   78000    292.88587    -1382.301    447.45526    384.31339   -139.81062    39993.759 
   78100    305.03428   -1348.3652    476.19906     501.7095     510.9647    39993.759 
   78200    306.76391   -1323.9992    440.25062    497.91726    603.64854    39993.759 
   78300    305.63946   -1310.7601    469.25545    535.09671     423.2852    39993.759 
   78400    300.93876    -1357.397    463.76337    461.79574    70.388498    39993.759 
   78500    311.02337   -1342.2196    445.39288     504.0238    288.48979    39993.759 
   78600    301.89964   -1379.2567    457.99311    438.49361   -158.58589    39993.759 
   78700    294.51968   -1380.7256    469.85836    415.65064    186.45399    39993.759 
   78800     298.1099    -1362.139    443.96464    424.51381   -191.67556    39993.759 
   78900    310.67969   -1376.3294    451.22089    474.19408     328.6043    39993.759 
   79000    295.94667   -1385.4033    452.27484    399.81653   -636.12282    39993.759 
   79100    299.69559   -1380.4593    438.37055    407.74139   -161.54243    39993.759 
   79200     298.8056   -1366.1376    451.20305    430.88703   -351.88539    39993.759 
   79300     303.5128   -1411.6295    440.18508    395.57845   -72.865342    39993.759 
   79400    298.85923   -1381.3564    423.44827    388.15498   -177.64345    39993.759 
   79500    307.89764   -1381.5968    478.01048    483.18594     102.2924    39993.759 
   79600    299.72439   -1376.8618    467.06694    440.16501    43.073888    39993.759 
   79700    308.21185    -1387.475    437.84968    438.56205   -301.46725    39993.759 
   79800     306.7705   -1355.8357    461.98017    487.84003   -145.14688    39993.759 
   79900    298.21256   -1377.9568    449.95017     415.1439   -487.06984    39993.759 
   80000    290.28156   -1412.4075    469.96552    364.98733   -149.57873    39993.759 
   80100    300.30229   -1406.9217    464.99066    410.63166    730.24431    39993.759 
   80200    299.36016   -1447.5363    453.29286    354.07593    2.2045981    39993.759 
   80300    297.99254   -1397.7053    460.29745    404.75176    170.02172    39993.759 
   80400    295.99126   -1394.3643     467.6865    406.46805    168.87268    39993.759 
   80500    302.65481   -1403.1309    457.07955    417.10715   -53.299108    39993.759 
   80600    287.93126   -1370.8424    463.80979    389.81097    69.628401    39993.759 
   80700    302.15427   -1401.2454    470.33918    429.99784    341.66486    39993.759 
   80800     310.7761   -1408.4646    462.44505    453.71724    230.26778    39993.759 
   80900    312.14591    -1382.215    455.99715    479.68857   -115.66037    39993.759 
   81000    309.03041   -1392.0538    459.58141    459.40183   -101.70604    39993.759 
   81100    293.43087   -1393.5092    442.68922    370.79385    56.596791    39993.759 
   81200    296.02557   -1388.3406     466.3047    411.26451    91.399949    39993.759 
   81300    295.16071    -1385.273    464.49031    408.62235    469.18087    39993.759 
   81400    303.57261   -1413.3197    463.87276    417.84533    430.80673    39993.759 
   81500    310.18645   -1386.0281    473.29766    484.35056    834.14075    39993.759 
   81600    295.68276   -1414.1406    479.10431    396.72002    763.37648    39993.759 
   81700    297.58134   -1405.2246    458.14625    393.22922    661.06211    39993.759 
   81800    307.34218   -1359.1272    461.75046    486.89372    189.14697    39993.759 
   81900    303.70046   -1430.8158    455.05448     392.1068   -347.84731    39993.759 
   82000    290.65304   -1425.4454    452.41765    336.07475   -118.58184    39993.759 
   82100    292.68331     -1439.64    442.25513    320.86192   -465.19739    39993.759 
   82200    303.34664   -1448.2551     464.9177    382.93703   -655.41411    39993.759 
   82300    308.71789   -1401.1256     453.5801    442.92108   -1081.6442    39993.759 
   82400    300.16908    -1448.449    439.92331    343.43708   -885.45619    39993.759 
   82500     292.8586   -1407.1554    470.69575    382.57666   -247.28415    39993.759 
   82600    288.96715   -1419.0453    452.97338    335.43729   -181.07496    39993.759 
   82700    293.58083   -1412.3546    467.73329     377.6679    -46.52709    39993.759 
   82800     301.0772   -1429.5581    466.73786    393.23263   -366.92647    39993.759 
   82900    296.97299    -1430.232    440.90693    348.24239    -389.0346    39993.759 
   83000     297.3085   -1416.4154    471.81921    394.48253   -803.14035    39993.759 
   83100    294.76814   -1380.3993    470.89347    418.13105   -473.33615    39993.759 
   83200    306.35781   -1479.4847    446.71006    347.06217   -466.40596    39993.759 
   83300     303.0918   -1426.3555    439.30021    378.07138    -440.5875    39993.759 
   83400    293.18104   -1424.1937    458.34324    354.63809   -445.32104    39993.759 
   83500    295.86409   -1377.8057    464.38372    419.15105   -378.01776    39993.759 
   83600    297.36317   -1353.0881    469.25786    455.49469   -554.03117    39993.759 
   83700    306.23158   -1396.3908    458.14955    441.02701   -304.00789    39993.759 
   83800    294.69678   -1445.0131    469.43708    351.73945   -93.282102    39993.759 
   83900    303.45467   -1411.5099    466.63919    421.89034    896.30832    39993.759 
   84000    293.11728    -1405.989    456.83182    371.04421    291.58466    39993.759 
   84100      305.578   -1406.0911    471.88314    442.11661    104.04278    39993.759 
   84200    303.64869   -1429.1682    448.84294    387.30969   -37.074434    39993.759 
   84300    309.56896   -1409.6244    467.25778    451.93319    -81.82075    39993.759 
   84400    301.47017   -1363.9991    465.84568    459.66942    167.38493    39993.759 
   84500    311.16881    -1367.356    466.22267    500.37225    16.748423    39993.759 
   84600    301.71742   -1354.1302     451.1907    455.99695   -294.52791    39993.759 
   84700     310.1392   -1365.6027    466.49197    497.75743    374.51151    39993.759 
   84800    300.90612   -1405.7495    459.22624    408.75906    658.66046    39993.759 
   84900     290.0944   -1358.8084    457.16217    404.94011    1250.5028    39993.759 
   85000    304.12996   -1406.5879    469.94968    433.16436    276.94585    39993.759 
   85100    307.92508   -1373.3312    496.47674    510.04131    387.41518    39993.759 
   85200      306.281   -1389.9905    485.54496    475.04529    107.53882    39993.759 
   85300     309.4314   -1371.8474    471.54127    493.37412    604.86163    39993.759 
   85400    305.51566    -1389.691    481.02019    467.37296     658.7607    39993.759 
   85500    292.77214   -1391.6123    480.03958    407.07418    589.91635    39993.759 
   85600    311.08282    -1402.652    435.33005     433.7963    556.06317    39993.759 
   85700    298.02753   -1398.7989    458.59648    402.11482   -173.09266    39993.759 
   85800    307.07424   -1388.9587    485.33793    479.44277   -15.298027    39993.759 
   85900    302.71525   -1388.2391    452.46935    427.66096   -652.04754    39993.759 
   86000    301.37336   -1348.4858    472.78862    481.68959   -236.82078    39993.759 
   86100    302.90399   -1402.1134    462.08652    424.25391   -183.60547    39993.759 
   86200    303.42924   -1404.5033    445.12737    407.27058   -129.95011    39993.759 
   86300    290.06188   -1431.4203    462.29091    337.31046   -319.47793    39993.759 
   86400    299.76096   -1404.3545    475.25527    421.02535   -207.94062    39993.759 
   86500    300.47853    -1421.462    437.96601    369.86053   -64.001437    39993.759 
   86600    294.36776   -1372.2174    466.98483    420.60097   -110.20693    39993.759 
   86700    292.97403   -1383.2222    459.28719     395.6212     3.885332    39993.759 
   86800    302.47641   -1375.3067    443.93169    430.97989    381.36386    39993.759 
   86900    301.51523   -1371.9189    453.98071    440.08758    194.64156    39993.759 
   87000    304.83116    -1368.647    450.70008     455.0139     310.6795    39993.759 
   87100    304.20942   -1377.1564    466.39067    459.39474    501.59032    39993.759 
   87200    308.93444   -1402.1069    468.46291    457.79799    489.43789    39993.759 
   87300    301.97692   -1377.2692    458.53229    441.36833    35.406193    39993.759 
   87400    296.80675   -1368.2115    457.09628    425.70353   -350.49069    39993.759 
   87500    303.31554   -1368.7923    462.08239    459.42448    85.190548    39993.759 
   87600    300.84562   -1402.1819    462.53586    415.36386     334.9797    39993.759 
   87700    302.72165   -1381.5125    468.17084    450.11783   -152.06628    39993.759 
   87800     306.3113   -1329.7456    468.95116    518.83286    -92.55352    39993.759 
   87900    303.47246   -1347.3431    449.80183    469.29986    1.6556335    39993.759 
   88000    291.43047   -1342.3906    462.85709    433.07054    -11.50319    39993.759 
   88100    302.41427   -1334.6833     476.0774    503.46917    157.74469    39993.759 
   88200    294.56091   -1344.3267    461.87703    444.25388    356.40739    39993.759 
   88300    299.22044   -1369.5413    451.61854    429.76728    131.67705    39993.759 
   88400    302.21427   -1322.0041    469.38212    508.55233   -287.12202    39993.759 
   88500    313.89981   -1342.4223    467.19358    538.57729   -300.02806    39993.759 
   88600    296.04655    -1334.978    478.26833    476.68511   -706.39576    39993.759 
   88700    309.70312   -1348.1136    457.77924    504.56972   -437.24358    39993.759 
   88800    298.00444   -1374.2776    488.46528    456.40083    13.504889    39993.759 
   88900    299.86581   -1376.2191    468.46353    442.84123    257.60913    39993.759 
   89000    300.12018   -1365.0591    459.36155    446.04491   -24.956681    39993.759 
   89100    304.59064   -1374.4762    451.91529    449.31652   -135.27495    39993.759 
   89200    297.46227   -1358.0143     448.8998    430.65674    26.678282    39993.759 
   89300    302.35917    -1324.166     484.5574    522.21833    673.84091    39993.759 
   89400    306.87545   -1392.0425    467.43924    457.56498    629.69076    39993.759 
   89500    300.85499   -1401.5887    468.94205    422.40542    170.12562    39993.759 
   89600    304.98913   -1398.8421     435.4861     410.3163    23.571465    39993.759 
   89700    292.81282   -1379.8617    440.30825    379.27666     -335.514    39993.759 
   89800    301.31381    -1361.715    487.37203    482.77562   -226.13624    39993.759 
   89900    293.81674   -1373.0813    449.76082    400.03129   -589.37677    39993.759 
   90000    295.36331   -1357.6505    473.67243    446.33941   -172.20661    39993.759 
   90100    299.06272   -1396.8155    460.66287    410.82708    160.71104    39993.759 
   90200    297.51304   -1360.1799    450.55893    430.37894    420.25933    39993.759 
   90300    292.69559   -1386.9969    450.55342    381.85865   -218.51015    39993.759 
   90400    311.85794   -1336.6274     460.7225    528.70455      629.829    39993.759 
   90500    301.30622   -1392.0282     440.1899    405.24609    256.80085    39993.759 
   90600    301.73696    -1392.071    457.33686     424.2903    197.13821    39993.759 
   90700    301.79574   -1401.2262    438.62078    396.68381    632.03846    39993.759 
   90800    292.07261   -1392.4236    449.21407    372.28666    232.93447    39993.759 
   90900    297.69684   -1403.9696    455.46243    392.32059     845.0043    39993.759 
[...]
  984600    301.89719   -1426.2621     512.1777    445.66178   -94.832797    39993.759 
  984700    300.43607   -1392.2286    479.42355    440.36018   -171.01003    39993.759 
  984800    299.22203   -1430.8103    503.46192    420.34886   -431.71226    39993.759 
  984900    304.51122   -1427.4559    490.00633    434.07013   -392.92542    39993.759 
  985000    297.53701   -1388.5487    492.02918    443.58838   -450.83556    39993.759 
  985100    293.79316   -1388.9218    505.50431    439.82811   -186.10811    39993.759 
  985200    297.41836   -1405.4701    508.02061    442.12395     -607.573    39993.759 
  985300    300.19894   -1418.5844    491.99539    425.50818    -246.8431    39993.759 
  985400    297.90257   -1446.3621    495.34216    390.73444   -363.65723    39993.759 
  985500     290.8839    -1439.555     494.9926    365.57991   -538.75487    39993.759 
  985600    307.85906   -1423.1064    518.83882     482.3309   -36.338678    39993.759 
  985700    293.99698   -1436.5916    493.25115    380.82313    121.13761    39993.759 
  985800    290.15705    -1436.617    515.17514    385.42666    11.102249    39993.759 
  985900    296.55089   -1417.6066    515.87955    433.93932    6.2461244    39993.759 
  986000    305.19083   -1443.4618    508.22111    439.34006    149.29901    39993.759 
  986100    304.18271   -1434.1874    485.06453    420.91724   -258.51736    39993.759 
  986200    300.84825   -1426.6518    503.22419    431.59415   -511.58568    39993.759 
  986300    292.91209   -1422.6407     538.4264    435.06295    -453.6315    39993.759 
  986400    296.91868   -1422.8412    505.98676    420.46846   -145.91542    39993.759 
  986500    304.88293    -1427.259    497.70143    443.63634    108.93418    39993.759 
  986600    299.32951   -1436.5674    502.49902    414.11288    -171.2309    39993.759 
  986700    292.21472   -1419.4401    485.38476    382.08091   -131.26433    39993.759 
  986800    292.43891   -1456.0833    512.62683     373.6895     39.57559    39993.759 
  986900    293.09322   -1475.8467    483.98509    328.23148    217.27481    39993.759 
  987000    305.09117   -1465.2702    514.92052    423.78219    288.22728    39993.759 
  987100    299.85468   -1486.1408    470.64357    335.04943     176.7932    39993.759 
  987200    299.27938   -1427.2336     522.5368    443.25868   -98.095549    39993.759 
  987300    294.72032   -1426.2767    493.58545    394.73023    121.05926    39993.759 
  987400    296.75408   -1433.9854    494.69729    397.29344    22.354957    39993.759 
  987500    295.38532   -1439.7569    494.35874    385.01853    531.15437    39993.759 
  987600    306.34528   -1412.6431     494.9497    462.08699    380.24779    39993.759 
  987700    305.07123   -1417.6945    483.37115    439.71872    323.43927    39993.759 
  987800     304.3135    -1405.537    513.08404    478.17624   -213.57845    39993.759 
  987900    299.94232   -1424.7778    492.18827    418.35192    35.312211    39993.759 
  988000    291.96736   -1395.4752     510.9854    430.53235    323.64718    39993.759 
  988100    301.53689   -1417.5018    489.95925    430.58079    120.03192    39993.759 
  988200    301.82699   -1467.9866    495.25111     386.6945   -109.71007    39993.759 
  988300    303.31366   -1476.1556    479.82446    369.79474   -405.34392    39993.759 
  988400    306.26603    -1429.551    509.09158      458.964   -554.27242    39993.759 
  988500    299.45208   -1464.6742    508.75839     392.8176   -625.33469    39993.759 
  988600    299.63921   -1456.2916    475.22721     368.5118    -554.2178    39993.759 
  988700    294.68009   -1440.6084    488.08502    374.71697    211.16959    39993.759 
  988800    306.89028   -1451.7883    485.38708    415.83382     95.35601    39993.759 
  988900    304.15577    -1436.274    461.52592    395.17075   -426.31957    39993.759 
  989000    309.71268   -1437.1385    483.93622    441.74491   -402.37856    39993.759 
  989100    302.01963   -1458.5241    474.61766     376.3912    47.984734    39993.759 
  989200    300.99394   -1439.8677    494.32196    410.13211   -400.59829    39993.759 
  989300    293.02364   -1455.4615    462.89658     327.2147    -58.21218    39993.759 
  989400    301.44252   -1447.1344    460.94847    371.51245    4.7437739    39993.759 
  989500    304.12858   -1429.5813    463.96395    404.17904    106.84731    39993.759 
  989600     292.6018   -1477.1409    483.02772     323.7665    481.99551    39993.759 
  989700    303.37469    -1493.666    471.99132    344.72607    120.42399    39993.759 
  989800      305.451    -1489.276    494.01877    380.49528   -81.327433    39993.759 
  989900    306.67667   -1468.5301    483.46071    396.20358    246.32949    39993.759 
  990000    299.50651   -1461.5737    490.26987    377.67468   -289.83513    39993.759 
  990100    303.62916   -1451.1443    473.62935    390.03202     381.1437    39993.759 
  990200    298.87813   -1449.2244    511.13663    408.06049    35.663179    39993.759 
  990300    291.66891   -1456.8216    480.93066    337.78701     224.1851    39993.759 
  990400    300.61116   -1450.8646    459.09475    362.18404    76.072363    39993.759 
  990500    309.00523   -1491.1269    504.42434    405.05819    400.75379    39993.759 
  990600    302.91883   -1472.5893    477.66957    369.42793    71.397925    39993.759 
  990700    290.58566   -1465.2187    468.00817    311.58844   -89.109375    39993.759 
  990800    309.47526   -1500.4939    480.20374    373.58764    761.74659    39993.759 
  990900    295.25379   -1474.3065    499.35149     354.8692    382.29207    39993.759 
  991000    292.42601   -1468.9207    480.02402    328.19127    217.35396    39993.759 
  991100    309.68018    -1504.476    482.30135    372.62615    -21.56684    39993.759 
  991200    307.85638   -1517.5298     455.4716    324.52813   -150.92784    39993.759 
  991300    303.95242   -1501.0244    488.95789    356.93645    168.24888    39993.759 
  991400    308.71904   -1491.3127     465.7538    364.91291    374.13959    39993.759 
  991500     307.2008   -1503.4329    472.54605    352.74678    216.25518    39993.759 
  991600    303.65265   -1440.5486    469.17738    396.28157    30.752758    39993.759 
  991700    304.58555   -1509.8244    484.79441     346.8245    -279.4571    39993.759 
  991800    293.85045   -1497.8329    470.99067    296.66135   -843.95877    39993.759 
  991900    302.14247   -1480.4247    491.58907    372.01524   -215.10684    39993.759 
  992000    293.15155    -1469.962    486.51508    336.90885   -10.552564    39993.759 
  992100    297.60147   -1472.9804    500.97936    368.39714    35.929661    39993.759 
  992200     307.2715   -1465.7451    489.21676    407.42374    138.59246    39993.759 
  992300    303.59014   -1456.3062    505.15331    416.21834    148.36973    39993.759 
  992400    299.76761   -1474.8248     483.8499    359.17959    511.00657    39993.759 
  992500    296.49589   -1487.7133     458.3616    306.06697     223.6464    39993.759 
  992600    304.47102   -1446.5795     507.8984    432.65755    -141.1505    39993.759 
  992700    294.37687   -1458.3585    482.23553    349.75166    98.757308    39993.759 
  992800      294.843   -1477.4393    473.19631    323.73101    146.68979    39993.759 
  992900    307.22313   -1429.8253    479.78866    433.69753   -374.65167    39993.759 
  993000    291.61177   -1470.9163    492.72602    335.23032   -326.82508    39993.759 
  993100    290.33845   -1482.2096    483.51669    308.99264    -364.1507    39993.759 
  993200    291.91207   -1478.5531    477.69103    313.91109   -389.28582    39993.759 
  993300    311.98576   -1456.5238    479.48345    428.14475   -284.65042    39993.759 
  993400    290.19668   -1490.1655    479.93396    296.81543   -375.66705    39993.759 
  993500    289.19754   -1450.0392    464.67181     317.1795   -835.04571    39993.759 
  993600    312.76177      -1441.6    501.52833    468.60859   -704.97021    39993.759 
  993700    309.93402     -1459.01    500.60999    437.54406   -179.13508    39993.759 
  993800    297.41251   -1471.8011    505.73564    373.48167   -313.47953    39993.759 
  993900    307.32226   -1455.6337    492.53351    421.08053    18.239879    39993.759 
  994000     298.5792    -1458.207    479.53955     366.1345   -146.82756    39993.759 
  994100    294.12545   -1441.9837    472.64014     355.3986   -383.07921    39993.759 
  994200    293.68713   -1443.1091     487.9132    367.57214    -565.7942    39993.759 
  994300    305.35963   -1449.1454    503.14213    429.33768   -336.83864    39993.759 
  994400    296.57709    -1458.703    474.68248    351.76393   -936.02689    39993.759 
  994500    288.70433   -1452.2544    494.95882    343.02992   -231.66195    39993.759 
  994600    309.26959   -1432.7634    476.18889    436.37696     -215.742    39993.759 
  994700    300.88852   -1461.6736    470.20538    363.73487   -424.93334    39993.759 
  994800    306.21024   -1463.0812     489.1483    405.23925    -395.7376    39993.759 
  994900    297.38594   -1462.1603    471.71194    348.97911     122.0267    39993.759 
  995000    285.57193   -1477.5236    499.14846    307.84192   -281.95966    39993.759 
  995100    304.61886   -1459.0553    487.72302    400.67226    59.566146    39993.759 
  995200    298.91179    -1509.342    475.24521     312.2031    209.01514    39993.759 
  995300    296.19039   -1487.2675    488.59285    335.36809    36.574797    39993.759 
  995400    300.56795   -1488.0575     479.5721    345.27388   -146.84407    39993.759 
  995500    297.03268   -1456.5942    463.39308    344.63523   -122.67026    39993.759 
  995600    291.99659   -1501.2065    464.61369    278.56099   -330.44795    39993.759 
  995700    303.08632   -1477.8872     500.4814    387.69616   -271.02244    39993.759 
  995800    299.91066   -1504.9491    463.39043    309.24015   -897.29389    39993.759 
  995900    300.69458   -1497.6647    478.09127    334.75614   -460.97042    39993.759 
  996000    294.31934   -1477.8122    486.64958    334.45284   -297.82897    39993.759 
  996100     302.8017   -1479.3755     476.7344    361.17895   -383.35905    39993.759 
  996200    310.26269   -1485.1662     464.0423    376.30053   -352.72642    39993.759 
  996300    294.54415   -1467.0761    465.11217    324.66407   -267.13559    39993.759 
  996400     300.0158   -1474.1021    491.57727    368.74755    252.35465    39993.759 
  996500    288.54106   -1464.1873    501.72858    337.13142   -339.14045    39993.759 
  996600    296.42301   -1495.5116    468.93317    308.51204   -79.146356    39993.759 
  996700    294.27223   -1463.4076    519.64999    381.64574   -19.545399    39993.759 
  996800     311.2306   -1508.4117    471.68459    365.05673    31.790453    39993.759 
  996900    290.39555   -1475.0602    497.42469    330.30721   -575.45617    39993.759 
  997000    308.36724    -1462.833    483.76568    409.82002   -70.304256    39993.759 
  997100    307.77543   -1471.7203    455.66818    370.16962    -376.6632    39993.759 
  997200    303.90711    -1493.798    494.74077    369.74157   -18.038707    39993.759 
  997300    301.40671   -1492.1984    480.86574     346.2044   -316.99009    39993.759 
  997400    310.07206   -1458.5967    490.62785    428.59693   -100.36712    39993.759 
  997500    292.71513   -1448.1289     494.5712    364.83237   -419.70498    39993.759 
  997600    297.58237   -1431.7234    495.36857    403.95741   -311.41564    39993.759 
  997700    303.73839     -1463.13    468.30979     373.2187   -216.97443    39993.759 
  997800    305.65519   -1459.7212    483.46835    400.41936   -208.34213    39993.759 
  997900    299.67592   -1441.5321    451.37338     359.5828   -472.99419    39993.759 
  998000    298.21172   -1392.7441    498.07581    448.47843   -51.718236    39993.759 
  998100    294.64331   -1422.9518    502.87267    406.99558    49.527535    39993.759 
  998200    292.37339   -1461.9136    481.62391    336.56122    46.768051    39993.759 
  998300    305.76664   -1418.9843    515.75656    473.94641    191.71853    39993.759 
  998400    305.11373   -1436.3668    497.59049     435.4572    474.66902    39993.759 
  998500    289.66194   -1443.8994    504.28878    365.02791   -54.501545    39993.759 
  998600    302.33446   -1430.7027    520.47188    451.48475   -67.237821    39993.759 
  998700    295.52978   -1443.5799    494.53022    382.01766    173.82587    39993.759 
  998800    297.16022   -1435.1787    504.62296    407.85511   -136.66065    39993.759 
  998900     301.1605   -1421.9276    529.15535    463.65582    82.317677    39993.759 
  999000    297.52333   -1431.2981    510.51122     419.2594    395.43636    39993.759 
  999100     296.9882   -1458.0644    521.58363    401.15525   -120.55018    39993.759 
  999200    299.54278   -1492.8665    490.61278    346.88813    442.12051    39993.759 
  999300    293.51971   -1487.0862    497.46606    332.39378     12.04441    39993.759 
  999400    309.02314   -1495.4372    484.06255    380.46677    -148.3813    39993.759 
  999500    297.58996   -1482.4244    506.65664    364.57867    119.85127    39993.759 
  999600     295.7319   -1473.2474    501.29528     360.0255    506.77839    39993.759 
  999700    292.90848   -1417.7746    520.11232    421.59872    636.19418    39993.759 
  999800    289.80469    -1429.344    504.06312    380.00059     878.3865    39993.759 
  999900    301.47681   -1460.0325    486.55235     384.3726      174.518    39993.759 
 1000000    303.56627   -1516.2712    492.89095    343.88344   -116.39566    39993.759 
 1000100    289.71512   -1467.0284    475.08378    312.93341    92.370266    39993.759 
 1000200    301.56998   -1447.0194    529.41666    440.66964   -380.04168    39993.759 
 1000300     295.7348   -1466.1168    493.43874    359.31261    115.70262    39993.759 
 1000400    304.53907   -1470.6196    524.51381    425.53942   -227.12128    39993.759 
 1000500    294.78429   -1458.4601    508.96011    378.20967    72.399972    39993.759 
 1000600    299.20274   -1456.8447    491.42808    382.19368   -379.21132    39993.759 
 1000700    300.18041   -1453.6353    506.27482    404.65331    184.83259    39993.759 
 1000800    296.18831   -1458.6218    506.92009    382.33168    517.93053    39993.759 
 1000900    297.21451   -1443.7064    486.31993    381.26882   -176.14138    39993.759 
 1001000    295.06804   -1476.1974    539.58149    392.37173   -77.629946    39993.759 
 1001100    310.42108   -1475.8811    476.65223     398.9089    142.84707    39993.759 
 1001200    296.06813   -1436.0333    490.64181    388.10058    267.57605    39993.759 
 1001300    313.80099   -1439.5919    499.37625     473.1453    549.01847    39993.759 
 1001400    300.56698   -1503.4065     472.7566    323.10501    421.09313    39993.759 
 1001500    307.93894   -1443.3743    511.01486    454.59878     518.9143    39993.759 
 1001600    304.65749   -1487.1385    491.74977    376.78985    802.96786    39993.759 
 1001700    296.51428   -1435.4773    523.52327    423.54745    786.88516    39993.759 
 1001800    295.44152   -1470.4445    494.41976    354.64505    26.383417    39993.759 
 1001900    296.00758   -1479.1954     491.7909    345.81477    128.93381    39993.759 
 1002000    323.35927   -1422.0922    468.56912    502.88835    61.600062    39993.759 
 1002100    296.17506    -1436.039    485.25163    383.18629   -472.88555    39993.759 
 1002200    300.12924   -1444.0003    484.66563    392.44861   -294.64705    39993.759 
 1002300    295.92731    -1468.298    475.73423    340.29407   -523.42839    39993.759 
 1002400    292.66744   -1429.2785    507.73103    396.62787   -187.53237    39993.759 
 1002500    292.59671   -1470.4203    497.47332    344.90977   -215.56149    39993.759 
 1002600    297.52358   -1459.6678    491.46368    371.84331    85.861489    39993.759 
 1002700    294.09872   -1446.4309    486.73124    364.92216    140.43672    39993.759 
 1002800    302.32383   -1433.4318    469.28014     397.5161   -385.31578    39993.759 
 1002900    290.49781   -1421.5108    500.31339    387.20594    -493.0633    39993.759 
 1003000    303.99633   -1415.5775    491.97157    445.59471   -248.17948    39993.759 
 1003100    310.64947   -1462.1583    467.55869     404.5668    52.271441    39993.759 
 1003200    296.65099   -1416.9845    518.17011    437.30286    446.15348    39993.759 
 1003300    308.44765   -1444.5453     507.3696    452.07374    56.522873    39993.759 
 1003400    295.31151   -1445.5484     464.5866    349.12248   -16.346443    39993.759 
 1003500     306.1533   -1451.1051    488.80312    416.61376   -552.66719    39993.759 
 1003600    279.20189   -1449.1983    472.76347    281.09164   -344.59853    39993.759 
 1003700    300.10081   -1486.4749     498.7146    363.89496    384.60542    39993.759 
 1003800    291.76809   -1505.7918    485.89526    294.22808    313.51787    39993.759 
 1003900    301.14797   -1443.8706    496.15451    408.65555    755.64421    39993.759 
 1004000    297.20586   -1469.8748    500.91885    369.66041    1112.1788    39993.759 
 1004100    303.50678   -1467.2281    507.36903    407.13666    940.50649    39993.759 
 1004200    313.84814    -1434.519    486.05636    465.11067    851.58518    39993.759 
 1004300    300.04254   -1509.6957     484.7552    326.45233     157.5602    39993.759 
 1004400    305.54642   -1487.7185    484.83825    373.30209    723.65433    39993.759 
 1004500    294.98197   -1502.8323    467.88528    293.65293    208.76525    39993.759 
 1004600     290.0066   -1508.9748    472.50974    269.72583    133.72879    39993.759 
 1004700    300.07116    -1479.517    519.24835    391.25308    281.62796    39993.759 
 1004800    302.67473   -1477.0464    457.52352    343.72528    95.542055    39993.759 
 1004900     295.7402   -1532.7696     493.2178    292.46324   -595.00009    39993.759 
 1005000    295.91739   -1480.3975    499.77499    352.19055    2.9826921    39993.759 
 1005100    307.83826   -1477.8847    467.04121    375.66129    37.151655    39993.759 
 1005200    297.22015   -1469.0441    489.34978    358.98645    185.96586    39993.759 
 1005300    302.57341   -1461.1689    509.07153    410.69447    899.27347    39993.759 
 1005400    294.80766   -1489.7938    510.18919    348.21026   -79.690415    39993.759 
 1005500    305.70241   -1510.6849    496.57706    362.77702   -204.98639    39993.759 
 1005600    294.25695   -1495.5019    471.87917    301.71171   -617.30866    39993.759 
 1005647    297.66733   -1460.9136     476.9666    356.74785   -591.38955    39993.759 
Loop time of 609.175 on 32 procs for 1000000 steps with 1512 atoms

Performance: 141.831 ns/day, 0.169 hours/ns, 1641.564 timesteps/s
100.0% CPU use with 32 MPI tasks x no OpenMP threads

MPI task timing breakdown:
Section |  min time  |  avg time  |  max time  |%varavg| %total
---------------------------------------------------------------
Pair    | 227        | 261.85     | 291.52     | 106.6 | 42.98
Bond    | 1.4423     | 1.5475     | 1.6786     |   4.7 |  0.25
Neigh   | 39.697     | 39.785     | 39.866     |   1.0 |  6.53
Comm    | 263.67     | 293.26     | 327.91     | 100.5 | 48.14
Output  | 0.39181    | 0.41116    | 0.91147    |  14.0 |  0.07
Modify  | 8.9365     | 9.2176     | 9.5725     |   4.6 |  1.51
Other   |            | 3.101      |            |       |  0.51

Nlocal:        47.2500 ave          77 max          19 min
Histogram: 1 8 1 3 2 3 6 3 3 2
Nghost:        1870.38 ave        1938 max        1817 min
Histogram: 4 6 3 1 5 3 2 3 2 3
Neighs:        5097.44 ave       11093 max         967 min
Histogram: 5 3 3 7 3 3 2 3 2 1

Total # of neighbors = 163118
Ave neighs/atom = 107.88228
Ave special neighs/atom = 2.0224868
Neighbor list builds = 49757
Dangerous builds = 0
The system volume is 39993.7587853388
Lattice vectors
34.1977401198563 0 0
0 34.1977401198563 0
0 0 34.1977401198563
Total wall time: 0:10:13
