LAMMPS data file
 1502 atoms
 1001 bonds
 500 angles
 0 dihedrals
 0 impropers
 4 atom types
 2 bond types
 1 angle types
 0 dihedral types
 1 improper types
 0 15 xlo xhi
 0 15 ylo yhi
 0 15 zlo zhi
 0 0 0 xy xz yz

# Atom types
#
# 1 Br_
# 2 H_
# 3 H__HB
# 4 O_3

# Bond Coeffs
#
# 1 Br_*H_
# 2 O_3*H__HB

# Angle Coeffs
#
# 1 O_3

# Dihedral Coeffs
#

# Inversion Coeffs
#
# 1 1

 Masses

 1 79.9
 2 1.01
 3 1.01
 4 16

 Atoms # full

1 1 1 0 12.8346521175751 3.62666119388357 13.3847215300172
2 1 2 0 12.3765856422199 1.93465846325218 12.7611858985641
3 2 3 0 13.5111911517754 2.49153136782348 0.929841385222971
4 2 4 0 14.4711911517754 2.49153136782348 0.929841385222971
5 2 3 0 14.7111911517754 1.56153136782348 0.929841385222971
6 3 3 0 13.7945372499246 5.53298418800347 4.26338133634999
7 3 4 0 14.7545372499246 5.53298418800347 4.26338133634999
8 3 3 0 14.9945372499246 4.60298418800347 4.26338133634999
9 4 3 0 8.84447837641463 0.674301794907078 12.4338141304906
10 4 4 0 9.80447837641463 0.674301794907078 12.4338141304906
11 4 3 0 10.0444783764146 -0.255698205092922 12.4338141304906
12 5 3 0 11.4823077670019 13.1792730795592 6.32959313923493
13 5 4 0 12.4423077670019 13.1792730795592 6.32959313923493
14 5 3 0 12.6823077670019 12.2492730795592 6.32959313923493
15 6 3 0 1.3049533932656 12.5998551879916 5.94983782153577
16 6 4 0 2.26495339326561 12.5998551879916 5.94983782153577
17 6 3 0 2.50495339326561 11.6698551879916 5.94983782153577
18 7 3 0 11.0601788414363 4.05365867464803 1.99769260478206
19 7 4 0 12.0201788414363 4.05365867464803 1.99769260478206
20 7 3 0 12.2601788414363 3.12365867464803 1.99769260478206
21 8 3 0 7.3212033945322 14.231009398764 9.25918984576128
22 8 4 0 8.2812033945322 14.231009398764 9.25918984576128
23 8 3 0 8.5212033945322 13.301009398764 9.25918984576128
24 9 3 0 2.11936146413907 3.82411838782951 5.26912705390714
25 9 4 0 3.07936146413907 3.82411838782951 5.26912705390714
26 9 3 0 3.31936146413907 2.89411838782951 5.26912705390714
27 10 3 0 10.8861598272063 5.20358917810023 10.9408564819023
28 10 4 0 11.8461598272063 5.20358917810023 10.9408564819023
29 10 3 0 12.0861598272063 4.27358917810023 10.9408564819023
30 11 3 0 0.920923633240163 8.07986748795025 9.2820463841781
31 11 4 0 1.88092363324016 8.07986748795025 9.2820463841781
32 11 3 0 2.12092363324016 7.14986748795025 9.2820463841781
33 12 3 0 12.8570809161477 7.44795787887648 14.432407199638
34 12 4 0 13.8170809161477 7.44795787887648 14.432407199638
35 12 3 0 14.0570809161477 6.51795787887648 14.432407199638
36 13 3 0 3.21450950039551 12.3758275741152 6.15276449010707
37 13 4 0 4.17450950039551 12.3758275741152 6.15276449010707
38 13 3 0 4.41450950039551 11.4458275741152 6.15276449010707
39 14 3 0 8.07082691157237 7.706170910215 2.83972010132857
40 14 4 0 9.03082691157237 7.706170910215 2.83972010132857
41 14 3 0 9.27082691157237 6.77617091021501 2.83972010132857
42 15 3 0 0.928898319108412 13.2968095566053 12.2877612104639
43 15 4 0 1.88889831910841 13.2968095566053 12.2877612104639
44 15 3 0 2.12889831910841 12.3668095566053 12.2877612104639
45 16 3 0 5.94466483147815 13.1478318448085 8.09893903671764
46 16 4 0 6.90466483147815 13.1478318448085 8.09893903671764
47 16 3 0 7.14466483147815 12.2178318448085 8.09893903671764
48 17 3 0 10.6819494422246 14.1135321433563 2.10912990267389
49 17 4 0 11.6419494422246 14.1135321433563 2.10912990267389
50 17 3 0 11.8819494422246 13.1835321433563 2.10912990267389
51 18 3 0 7.16496770546772 5.90419025084935 5.51657394273207
52 18 4 0 8.12496770546772 5.90419025084935 5.51657394273207
53 18 3 0 8.36496770546772 4.97419025084935 5.51657394273207
54 19 3 0 3.9276640237961 9.4700201127585 3.25444762129337
55 19 4 0 4.8876640237961 9.4700201127585 3.25444762129337
56 19 3 0 5.1276640237961 8.5400201127585 3.25444762129337
57 20 3 0 3.9104115280509 12.5755638982542 8.08639511349611
58 20 4 0 4.8704115280509 12.5755638982542 8.08639511349611
59 20 3 0 5.1104115280509 11.6455638982542 8.08639511349611
60 21 3 0 13.2199252273142 5.52348151261918 4.93945769732818
61 21 4 0 14.1799252273142 5.52348151261918 4.93945769732818
62 21 3 0 14.4199252273142 4.59348151261918 4.93945769732818
63 22 3 0 10.8259358249791 1.5951808371488 7.52068116911687
64 22 4 0 11.7859358249791 1.5951808371488 7.52068116911687
65 22 3 0 12.0259358249791 0.6651808371488 7.52068116911687
66 23 3 0 13.9926875154208 10.175762173431 0.192574033280835
67 23 4 0 14.9526875154208 10.175762173431 0.192574033280835
68 23 3 0 15.1926875154208 9.24576217343099 0.192574033280835
69 24 3 0 0.0100602004397661 9.85645088640973 9.31773047544993
70 24 4 0 0.970060200439766 9.85645088640973 9.31773047544993
71 24 3 0 1.21006020043977 8.92645088640973 9.31773047544993
72 25 3 0 5.74698014577851 5.44203123467974 10.5702427926008
73 25 4 0 6.70698014577851 5.44203123467974 10.5702427926008
74 25 3 0 6.94698014577851 4.51203123467974 10.5702427926008
75 26 3 0 2.45794106667861 6.1126205713395 10.5926647852175
76 26 4 0 3.41794106667861 6.1126205713395 10.5926647852175
77 26 3 0 3.65794106667861 5.1826205713395 10.5926647852175
78 27 3 0 -0.695016707321629 2.87841988419183 7.90358176105656
79 27 4 0 0.264983292678371 2.87841988419183 7.90358176105656
80 27 3 0 0.504983292678371 1.94841988419183 7.90358176105656
81 28 3 0 8.16571518240496 4.09255835035816 3.96354280645028
82 28 4 0 9.12571518240497 4.09255835035816 3.96354280645028
83 28 3 0 9.36571518240497 3.16255835035816 3.96354280645028
84 29 3 0 6.63021886182949 5.79467589076608 13.8361250550952
85 29 4 0 7.59021886182949 5.79467589076608 13.8361250550952
86 29 3 0 7.83021886182949 4.86467589076608 13.8361250550952
87 30 3 0 11.042398009887 10.9945752592199 5.30605803360231
88 30 4 0 12.002398009887 10.9945752592199 5.30605803360231
89 30 3 0 12.242398009887 10.0645752592199 5.30605803360231
90 31 3 0 1.6374251763057 11.565591113586 13.2976239547133
91 31 4 0 2.5974251763057 11.565591113586 13.2976239547133
92 31 3 0 2.8374251763057 10.635591113586 13.2976239547133
93 32 3 0 10.0663297895528 13.7899774200656 5.73400189052336
94 32 4 0 11.0263297895528 13.7899774200656 5.73400189052336
95 32 3 0 11.2663297895528 12.8599774200656 5.73400189052336
96 33 3 0 11.8731272527669 9.73968257586472 14.8804439452942
97 33 4 0 12.8331272527669 9.73968257586472 14.8804439452942
98 33 3 0 13.0731272527669 8.80968257586472 14.8804439452942
99 34 3 0 6.77048995552585 14.7154826546926 3.24031840427779
100 34 4 0 7.73048995552585 14.7154826546926 3.24031840427779
101 34 3 0 7.97048995552585 13.7854826546926 3.24031840427779
102 35 3 0 13.3532072107494 3.13452635117806 12.2044602816459
103 35 4 0 14.3132072107494 3.13452635117806 12.2044602816459
104 35 3 0 14.5532072107494 2.20452635117806 12.2044602816459
105 36 3 0 1.87528233320452 8.05486634181812 0.810413304716349
106 36 4 0 2.83528233320452 8.05486634181812 0.810413304716349
107 36 3 0 3.07528233320452 7.12486634181812 0.810413304716349
108 37 3 0 3.65762693851255 2.35630620777607 2.98426293767989
109 37 4 0 4.61762693851255 2.35630620777607 2.98426293767989
110 37 3 0 4.85762693851255 1.42630620777607 2.98426293767989
111 38 3 0 11.5020092732459 13.3290561281051 0.480848652077839
112 38 4 0 12.4620092732459 13.3290561281051 0.480848652077839
113 38 3 0 12.7020092732459 12.3990561281051 0.480848652077839
114 39 3 0 3.86209372940473 13.3411739293393 8.21783103165217
115 39 4 0 4.82209372940473 13.3411739293393 8.21783103165217
116 39 3 0 5.06209372940473 12.4111739293393 8.21783103165217
117 40 3 0 12.0640855624527 13.0972552594636 2.82870192895643
118 40 4 0 13.0240855624527 13.0972552594636 2.82870192895643
119 40 3 0 13.2640855624527 12.1672552594636 2.82870192895643
120 41 3 0 12.6025393015891 4.47199767729267 2.85714818048291
121 41 4 0 13.5625393015891 4.47199767729267 2.85714818048291
122 41 3 0 13.8025393015891 3.54199767729267 2.85714818048291
123 42 3 0 2.498611049233 10.8720582168922 13.7641517969314
124 42 4 0 3.458611049233 10.8720582168922 13.7641517969314
125 42 3 0 3.698611049233 9.94205821689218 13.7641517969314
126 43 3 0 8.32066271963529 15.2529735611193 10.1832677121274
127 43 4 0 9.28066271963529 15.2529735611193 10.1832677121274
128 43 3 0 9.52066271963529 14.3229735611193 10.1832677121274
129 44 3 0 5.62851130424067 9.16577759472653 7.68510514288209
130 44 4 0 6.58851130424067 9.16577759472653 7.68510514288209
131 44 3 0 6.82851130424067 8.23577759472653 7.68510514288209
132 45 3 0 5.08394910997711 14.320977789294 10.8799258572981
133 45 4 0 6.04394910997711 14.320977789294 10.8799258572981
134 45 3 0 6.28394910997711 13.390977789294 10.8799258572981
135 46 3 0 14.1420971606579 1.78479421808384 9.17316626524553
136 46 4 0 15.1020971606579 1.78479421808384 9.17316626524553
137 46 3 0 15.3420971606579 0.854794218083843 9.17316626524553
138 47 3 0 13.9503830407932 10.4522489341348 5.03120070439763
139 47 4 0 14.9103830407932 10.4522489341348 5.03120070439763
140 47 3 0 15.1503830407932 9.52224893413484 5.03120070439763
141 48 3 0 13.7691705166083 8.10917727806605 4.61181346792728
142 48 4 0 14.7291705166083 8.10917727806605 4.61181346792728
143 48 3 0 14.9691705166083 7.17917727806605 4.61181346792728
144 49 3 0 2.02749903590418 13.5287022035941 9.34325010166503
145 49 4 0 2.98749903590418 13.5287022035941 9.34325010166503
146 49 3 0 3.22749903590418 12.5987022035941 9.34325010166503
147 50 3 0 3.61050844352692 12.3845001581963 4.24654697533697
148 50 4 0 4.57050844352692 12.3845001581963 4.24654697533697
149 50 3 0 4.81050844352692 11.4545001581963 4.24654697533697
150 51 3 0 10.874636257505 3.08801377000287 11.5612118120771
151 51 4 0 11.834636257505 3.08801377000287 11.5612118120771
152 51 3 0 12.074636257505 2.15801377000287 11.5612118120771
153 52 3 0 4.0598394493293 14.8093099546991 5.84707366651855
154 52 4 0 5.0198394493293 14.8093099546991 5.84707366651855
155 52 3 0 5.2598394493293 13.8793099546991 5.84707366651855
156 53 3 0 13.6161641583033 14.6417889026366 3.21777589735575
157 53 4 0 14.5761641583033 14.6417889026366 3.21777589735575
158 53 3 0 14.8161641583033 13.7117889026366 3.21777589735575
159 54 3 0 3.62974545962177 14.5690205895249 5.41571890586056
160 54 4 0 4.58974545962177 14.5690205895249 5.41571890586056
161 54 3 0 4.82974545962177 13.6390205895249 5.41571890586056
162 55 3 0 9.97730913033709 13.6935304540116 11.395355873974
163 55 4 0 10.9373091303371 13.6935304540116 11.395355873974
164 55 3 0 11.1773091303371 12.7635304540116 11.395355873974
165 56 3 0 -0.00745681070722637 14.0096246443596 11.1920191976242
166 56 4 0 0.952543189292774 14.0096246443596 11.1920191976242
167 56 3 0 1.19254318929277 13.0796246443596 11.1920191976242
168 57 3 0 5.11905002335086 0.362766357548535 1.33906023111194
169 57 4 0 6.07905002335086 0.362766357548535 1.33906023111194
170 57 3 0 6.31905002335087 -0.567233642451465 1.33906023111194
171 58 3 0 6.19999186878093 8.81526902126148 0.810355679132044
172 58 4 0 7.15999186878093 8.81526902126148 0.810355679132044
173 58 3 0 7.39999186878093 7.88526902126148 0.810355679132044
174 59 3 0 4.00862405469641 10.8158061471209 8.60739419586025
175 59 4 0 4.96862405469641 10.8158061471209 8.60739419586025
176 59 3 0 5.20862405469641 9.88580614712089 8.60739419586025
177 60 3 0 13.8147137830686 13.7163521691132 5.67122476059012
178 60 4 0 14.7747137830686 13.7163521691132 5.67122476059012
179 60 3 0 15.0147137830686 12.7863521691132 5.67122476059012
180 61 3 0 4.17209338556975 5.55576512863859 11.4464227063581
181 61 4 0 5.13209338556975 5.55576512863859 11.4464227063581
182 61 3 0 5.37209338556975 4.6257651286386 11.4464227063581
183 62 3 0 13.7898843507003 4.52882363501936 12.5938953913283
184 62 4 0 14.7498843507003 4.52882363501936 12.5938953913283
185 62 3 0 14.9898843507003 3.59882363501936 12.5938953913283
186 63 3 0 8.9552457646653 10.8056663842313 4.26807179697789
187 63 4 0 9.91524576466531 10.8056663842313 4.26807179697789
188 63 3 0 10.1552457646653 9.8756663842313 4.26807179697789
189 64 3 0 6.13865209554322 0.399773011859506 10.6880882964469
190 64 4 0 7.09865209554322 0.399773011859506 10.6880882964469
191 64 3 0 7.33865209554322 -0.530226988140494 10.6880882964469
192 65 3 0 7.23006496016867 1.83301511494443 11.2242077453993
193 65 4 0 8.19006496016867 1.83301511494443 11.2242077453993
194 65 3 0 8.43006496016868 0.903015114944428 11.2242077453993
195 66 3 0 1.53183146889322 7.87895879050717 1.08026426634751
196 66 4 0 2.49183146889322 7.87895879050717 1.08026426634751
197 66 3 0 2.73183146889322 6.94895879050717 1.08026426634751
198 67 3 0 13.0164767713007 6.24113404116593 14.1883177449927
199 67 4 0 13.9764767713007 6.24113404116593 14.1883177449927
200 67 3 0 14.2164767713007 5.31113404116593 14.1883177449927
201 68 3 0 0.157814161358401 13.5154886012338 3.41354784322903
202 68 4 0 1.1178141613584 13.5154886012338 3.41354784322903
203 68 3 0 1.3578141613584 12.5854886012338 3.41354784322903
204 69 3 0 0.00536862222477796 4.95648074004799 8.83192089619115
205 69 4 0 0.965368622224778 4.95648074004799 8.83192089619115
206 69 3 0 1.20536862222478 4.02648074004799 8.83192089619115
207 70 3 0 9.86249195222743 3.47197777749039 12.1450147172436
208 70 4 0 10.8224919522274 3.47197777749039 12.1450147172436
209 70 3 0 11.0624919522274 2.54197777749039 12.1450147172436
210 71 3 0 13.7875815834571 7.68821604590863 3.00565367331728
211 71 4 0 14.7475815834571 7.68821604590863 3.00565367331728
212 71 3 0 14.9875815834571 6.75821604590863 3.00565367331728
213 72 3 0 8.88203930153511 9.53090713051148 2.27356484974734
214 72 4 0 9.84203930153511 9.53090713051148 2.27356484974734
215 72 3 0 10.0820393015351 8.60090713051148 2.27356484974734
216 73 3 0 1.57841856868006 8.69318175054155 14.524557661498
217 73 4 0 2.53841856868006 8.69318175054155 14.524557661498
218 73 3 0 2.77841856868006 7.76318175054155 14.524557661498
219 74 3 0 7.89288120271638 8.97538752918132 9.51328899012879
220 74 4 0 8.85288120271638 8.97538752918132 9.51328899012879
221 74 3 0 9.09288120271638 8.04538752918132 9.51328899012879
222 75 3 0 12.9802338794991 11.3394230165891 7.33169365092181
223 75 4 0 13.9402338794991 11.3394230165891 7.33169365092181
224 75 3 0 14.1802338794991 10.4094230165891 7.33169365092181
225 76 3 0 9.71992412975058 14.5166347913351 10.9114806179423
226 76 4 0 10.6799241297506 14.5166347913351 10.9114806179423
227 76 3 0 10.9199241297506 13.5866347913351 10.9114806179423
228 77 3 0 0.672682475270703 9.88908201962709 9.06156751443632
229 77 4 0 1.6326824752707 9.88908201962709 9.06156751443632
230 77 3 0 1.8726824752707 8.9590820196271 9.06156751443632
231 78 3 0 13.9916408636793 13.7649764345866 12.0011107914615
232 78 4 0 14.9516408636793 13.7649764345866 12.0011107914615
233 78 3 0 15.1916408636793 12.8349764345866 12.0011107914615
234 79 3 0 8.3503194681555 13.5275627746619 11.9873955601361
235 79 4 0 9.3103194681555 13.5275627746619 11.9873955601361
236 79 3 0 9.5503194681555 12.5975627746619 11.9873955601361
237 80 3 0 5.8665787176881 1.41925528220832 1.97793868370354
238 80 4 0 6.8265787176881 1.41925528220832 1.97793868370354
239 80 3 0 7.0665787176881 0.489255282208323 1.97793868370354
240 81 3 0 8.56043058025651 12.2943441946432 9.53334115678445
241 81 4 0 9.52043058025651 12.2943441946432 9.53334115678445
242 81 3 0 9.76043058025651 11.3643441946432 9.53334115678445
243 82 3 0 0.017585989991203 13.0205334925 0.236120150657371
244 82 4 0 0.977585989991203 13.0205334925 0.236120150657371
245 82 3 0 1.2175859899912 12.0905334925 0.236120150657371
246 83 3 0 3.57422880755737 8.82204085163772 7.54607735434547
247 83 4 0 4.53422880755737 8.82204085163772 7.54607735434547
248 83 3 0 4.77422880755737 7.89204085163772 7.54607735434547
249 84 3 0 9.02053459125571 13.6452874708362 9.46291892440058
250 84 4 0 9.98053459125571 13.6452874708362 9.46291892440058
251 84 3 0 10.2205345912557 12.7152874708362 9.46291892440058
252 85 3 0 9.59935276114382 13.9455950275902 7.3721434304025
253 85 4 0 10.5593527611438 13.9455950275902 7.3721434304025
254 85 3 0 10.7993527611438 13.0155950275902 7.3721434304025
255 86 3 0 10.3245163724944 8.11512322555296 11.6005127679091
256 86 4 0 11.2845163724944 8.11512322555296 11.6005127679091
257 86 3 0 11.5245163724944 7.18512322555296 11.6005127679091
258 87 3 0 0.785320763681084 4.00742524926551 11.4708518434782
259 87 4 0 1.74532076368108 4.00742524926551 11.4708518434782
260 87 3 0 1.98532076368108 3.07742524926551 11.4708518434782
261 88 3 0 2.72972123508342 2.98798558692448 10.7384997303598
262 88 4 0 3.68972123508342 2.98798558692448 10.7384997303598
263 88 3 0 3.92972123508342 2.05798558692448 10.7384997303598
264 89 3 0 5.11698076894507 3.46530494786799 1.50641660322435
265 89 4 0 6.07698076894507 3.46530494786799 1.50641660322435
266 89 3 0 6.31698076894507 2.53530494786799 1.50641660322435
267 90 3 0 3.97041119562462 6.26584307098761 5.0469498638995
268 90 4 0 4.93041119562462 6.26584307098761 5.0469498638995
269 90 3 0 5.17041119562462 5.33584307098761 5.0469498638995
270 91 3 0 0.784071985837072 15.1788882309943 1.3624240248464
271 91 4 0 1.74407198583707 15.1788882309943 1.3624240248464
272 91 3 0 1.98407198583707 14.2488882309943 1.3624240248464
273 92 3 0 12.2172926498763 9.18279566610232 0.230314215878025
274 92 4 0 13.1772926498763 9.18279566610232 0.230314215878025
275 92 3 0 13.4172926498763 8.25279566610232 0.230314215878025
276 93 3 0 -0.672649755869061 12.2451648725569 10.1125173666514
277 93 4 0 0.287350244130939 12.2451648725569 10.1125173666514
278 93 3 0 0.527350244130939 11.3151648725569 10.1125173666514
279 94 3 0 1.97352174480446 10.9775130256917 8.37097195442766
280 94 4 0 2.93352174480446 10.9775130256917 8.37097195442766
281 94 3 0 3.17352174480446 10.0475130256917 8.37097195442766
282 95 3 0 0.0709715152345598 8.5529339515511 1.92158737569116
283 95 4 0 1.03097151523456 8.5529339515511 1.92158737569116
284 95 3 0 1.27097151523456 7.62293395155109 1.92158737569116
285 96 3 0 8.27874656810425 1.00594614091329 7.31704091071151
286 96 4 0 9.23874656810425 1.00594614091329 7.31704091071151
287 96 3 0 9.47874656810425 0.0759461409132927 7.31704091071151
288 97 3 0 7.99555093210191 9.98853022390045 6.60172284347937
289 97 4 0 8.95555093210191 9.98853022390045 6.60172284347937
290 97 3 0 9.19555093210191 9.05853022390045 6.60172284347937
291 98 3 0 10.9176120981295 10.1901259789616 2.49929844285361
292 98 4 0 11.8776120981295 10.1901259789616 2.49929844285361
293 98 3 0 12.1176120981295 9.26012597896159 2.49929844285361
294 99 3 0 6.79254676259123 6.47076784557663 8.00959345302545
295 99 4 0 7.75254676259123 6.47076784557663 8.00959345302545
296 99 3 0 7.99254676259123 5.54076784557663 8.00959345302545
297 100 3 0 9.43377466916107 9.68357209739275 4.41067459294572
298 100 4 0 10.3937746691611 9.68357209739275 4.41067459294572
299 100 3 0 10.6337746691611 8.75357209739275 4.41067459294572
300 101 3 0 3.39946667823941 14.5354698323086 2.6118265686091
301 101 4 0 4.35946667823941 14.5354698323086 2.6118265686091
302 101 3 0 4.59946667823941 13.6054698323086 2.6118265686091
303 102 3 0 6.93150405582972 1.1018154890649 0.809995400486514
304 102 4 0 7.89150405582972 1.1018154890649 0.809995400486514
305 102 3 0 8.13150405582972 0.171815489064902 0.809995400486514
306 103 3 0 5.78254726759158 10.0073508480005 12.2918186383322
307 103 4 0 6.74254726759158 10.0073508480005 12.2918186383322
308 103 3 0 6.98254726759158 9.0773508480005 12.2918186383322
309 104 3 0 -0.235804701950401 4.54809590050951 0.957279377616942
310 104 4 0 0.724195298049599 4.54809590050951 0.957279377616942
311 104 3 0 0.964195298049599 3.61809590050951 0.957279377616942
312 105 3 0 11.4467140640784 9.26552604575642 12.9213152301963
313 105 4 0 12.4067140640784 9.26552604575642 12.9213152301963
314 105 3 0 12.6467140640784 8.33552604575642 12.9213152301963
315 106 3 0 8.96812064034864 13.4775393530168 13.4576073393691
316 106 4 0 9.92812064034864 13.4775393530168 13.4576073393691
317 106 3 0 10.1681206403486 12.5475393530168 13.4576073393691
318 107 3 0 1.34252712174319 0.955003828685731 0.292758154682815
319 107 4 0 2.30252712174319 0.955003828685731 0.292758154682815
320 107 3 0 2.54252712174319 0.0250038286857306 0.292758154682815
321 108 3 0 13.8944288883079 1.12560019403696 14.1378790629096
322 108 4 0 14.8544288883079 1.12560019403696 14.1378790629096
323 108 3 0 15.0944288883079 0.195600194036961 14.1378790629096
324 109 3 0 13.7390137456544 1.44868315587752 6.75879858084954
325 109 4 0 14.6990137456544 1.44868315587752 6.75879858084954
326 109 3 0 14.9390137456544 0.518683155877516 6.75879858084954
327 110 3 0 1.35721044891514 8.65955251426436 3.30541374511085
328 110 4 0 2.31721044891514 8.65955251426436 3.30541374511085
329 110 3 0 2.55721044891514 7.72955251426436 3.30541374511085
330 111 3 0 -0.0968343399278819 1.53178990393877 12.4707166361623
331 111 4 0 0.863165660072118 1.53178990393877 12.4707166361623
332 111 3 0 1.10316566007212 0.60178990393877 12.4707166361623
333 112 3 0 6.46535148189403 1.02502920240164 8.39188703102991
334 112 4 0 7.42535148189403 1.02502920240164 8.39188703102991
335 112 3 0 7.66535148189403 0.095029202401638 8.39188703102991
336 113 3 0 3.78754649704322 10.6262222669926 10.9500075678807
337 113 4 0 4.74754649704322 10.6262222669926 10.9500075678807
338 113 3 0 4.98754649704322 9.69622226699255 10.9500075678807
339 114 3 0 -0.416659469045699 12.5382605979126 1.9180986948777
340 114 4 0 0.543340530954301 12.5382605979126 1.9180986948777
341 114 3 0 0.783340530954301 11.6082605979126 1.9180986948777
342 115 3 0 9.67992919075303 2.25805760052986 14.1333422774915
343 115 4 0 10.639929190753 2.25805760052986 14.1333422774915
344 115 3 0 10.879929190753 1.32805760052986 14.1333422774915
345 116 3 0 -0.356911991983652 5.40254788863473 9.83557057566941
346 116 4 0 0.603088008016348 5.40254788863473 9.83557057566941
347 116 3 0 0.843088008016348 4.47254788863473 9.83557057566941
348 117 3 0 8.99510032773949 4.86592354177497 7.2470115730539
349 117 4 0 9.95510032773949 4.86592354177497 7.2470115730539
350 117 3 0 10.1951003277395 3.93592354177497 7.2470115730539
351 118 3 0 4.41007470639423 12.2881338295434 11.567776654847
352 118 4 0 5.37007470639423 12.2881338295434 11.567776654847
353 118 3 0 5.61007470639423 11.3581338295434 11.567776654847
354 119 3 0 4.85499412447214 10.5616145189293 4.63262086152099
355 119 4 0 5.81499412447214 10.5616145189293 4.63262086152099
356 119 3 0 6.05499412447214 9.63161451892927 4.63262086152099
357 120 3 0 13.3596856221277 6.51376628939994 14.1407710744534
358 120 4 0 14.3196856221277 6.51376628939994 14.1407710744534
359 120 3 0 14.5596856221277 5.58376628939994 14.1407710744534
360 121 3 0 4.62075496369042 14.7687463559583 1.05751326307654
361 121 4 0 5.58075496369042 14.7687463559583 1.05751326307654
362 121 3 0 5.82075496369042 13.8387463559583 1.05751326307654
363 122 3 0 7.61217173698358 4.35102538479492 11.6036691621412
364 122 4 0 8.57217173698358 4.35102538479492 11.6036691621412
365 122 3 0 8.81217173698358 3.42102538479492 11.6036691621412
366 123 3 0 10.2841175584774 8.3801539258007 4.20251507079229
367 123 4 0 11.2441175584774 8.3801539258007 4.20251507079229
368 123 3 0 11.4841175584774 7.4501539258007 4.20251507079229
369 124 3 0 4.22370430475101 14.8165831800457 2.69263221882284
370 124 4 0 5.18370430475101 14.8165831800457 2.69263221882284
371 124 3 0 5.42370430475101 13.8865831800457 2.69263221882284
372 125 3 0 3.66518927665427 1.96084333973937 1.13376310095191
373 125 4 0 4.62518927665427 1.96084333973937 1.13376310095191
374 125 3 0 4.86518927665427 1.03084333973937 1.13376310095191
375 126 3 0 5.21205331242643 7.24339314195327 14.8460779117886
376 126 4 0 6.17205331242643 7.24339314195327 14.8460779117886
377 126 3 0 6.41205331242643 6.31339314195327 14.8460779117886
378 127 3 0 11.4879100599512 14.6924911641423 13.1695562729146
379 127 4 0 12.4479100599512 14.6924911641423 13.1695562729146
380 127 3 0 12.6879100599512 13.7624911641423 13.1695562729146
381 128 3 0 9.9895333642792 7.42605995078571 3.02570665371604
382 128 4 0 10.9495333642792 7.42605995078571 3.02570665371604
383 128 3 0 11.1895333642792 6.49605995078571 3.02570665371604
384 129 3 0 12.3409082209412 12.8317776326463 13.0125474371016
385 129 4 0 13.3009082209412 12.8317776326463 13.0125474371016
386 129 3 0 13.5409082209412 11.9017776326463 13.0125474371016
387 130 3 0 2.03168428430334 5.40116070112213 5.12081745662726
388 130 4 0 2.99168428430334 5.40116070112213 5.12081745662726
389 130 3 0 3.23168428430334 4.47116070112213 5.12081745662726
390 131 3 0 13.2934562761523 10.9079492678307 8.48284218111075
391 131 4 0 14.2534562761523 10.9079492678307 8.48284218111075
392 131 3 0 14.4934562761523 9.9779492678307 8.48284218111075
393 132 3 0 13.8462299275864 8.66533225210384 3.19769368506968
394 132 4 0 14.8062299275864 8.66533225210384 3.19769368506968
395 132 3 0 15.0462299275864 7.73533225210384 3.19769368506968
396 133 3 0 13.1077630729135 9.18382684275508 10.041087664431
397 133 4 0 14.0677630729135 9.18382684275508 10.041087664431
398 133 3 0 14.3077630729135 8.25382684275508 10.041087664431
399 134 3 0 1.22147357717156 6.04945299140178 1.48513531778008
400 134 4 0 2.18147357717156 6.04945299140178 1.48513531778008
401 134 3 0 2.42147357717156 5.11945299140178 1.48513531778008
402 135 3 0 11.4072967394907 1.63599810720421 6.13602571422234
403 135 4 0 12.3672967394907 1.63599810720421 6.13602571422234
404 135 3 0 12.6072967394907 0.705998107204214 6.13602571422234
405 136 3 0 3.74387125295587 7.43063477607444 9.06516723451205
406 136 4 0 4.70387125295587 7.43063477607444 9.06516723451205
407 136 3 0 4.94387125295587 6.50063477607444 9.06516723451205
408 137 3 0 1.2762640455924 8.46038151107729 4.64457941707224
409 137 4 0 2.2362640455924 8.46038151107729 4.64457941707224
410 137 3 0 2.4762640455924 7.53038151107728 4.64457941707224
411 138 3 0 11.4993012060598 11.8647936037183 8.65924528450705
412 138 4 0 12.4593012060598 11.8647936037183 8.65924528450705
413 138 3 0 12.6993012060598 10.9347936037183 8.65924528450705
414 139 3 0 4.04848083897494 3.01689114229754 12.3111849906854
415 139 4 0 5.00848083897494 3.01689114229754 12.3111849906854
416 139 3 0 5.24848083897494 2.08689114229754 12.3111849906854
417 140 3 0 4.94367376595736 2.93175364419818 10.6437336816452
418 140 4 0 5.90367376595736 2.93175364419818 10.6437336816452
419 140 3 0 6.14367376595736 2.00175364419818 10.6437336816452
420 141 3 0 1.33443551181816 1.8194215713907 13.6908863286953
421 141 4 0 2.29443551181816 1.8194215713907 13.6908863286953
422 141 3 0 2.53443551181816 0.889421571390703 13.6908863286953
423 142 3 0 3.72957406609319 2.41150111350231 12.7214843162801
424 142 4 0 4.68957406609319 2.41150111350231 12.7214843162801
425 142 3 0 4.92957406609319 1.48150111350231 12.7214843162801
426 143 3 0 4.3941695107799 9.17568857706152 14.9861475848593
427 143 4 0 5.3541695107799 9.17568857706152 14.9861475848593
428 143 3 0 5.5941695107799 8.24568857706152 14.9861475848593
429 144 3 0 9.78703433691524 4.5239120073989 1.2111597857438
430 144 4 0 10.7470343369152 4.5239120073989 1.2111597857438
431 144 3 0 10.9870343369152 3.5939120073989 1.2111597857438
432 145 3 0 1.34307859858498 2.14344736462459 0.878669251687825
433 145 4 0 2.30307859858498 2.14344736462459 0.878669251687825
434 145 3 0 2.54307859858498 1.21344736462459 0.878669251687825
435 146 3 0 4.11706402243115 4.66661981115118 10.9471895266324
436 146 4 0 5.07706402243115 4.66661981115118 10.9471895266324
437 146 3 0 5.31706402243115 3.73661981115118 10.9471895266324
438 147 3 0 12.6990101595595 10.8150071980804 3.35795222665183
439 147 4 0 13.6590101595595 10.8150071980804 3.35795222665183
440 147 3 0 13.8990101595595 9.88500719808042 3.35795222665183
441 148 3 0 8.06583152429201 7.44354633306153 6.0927940858528
442 148 4 0 9.02583152429201 7.44354633306153 6.0927940858528
443 148 3 0 9.26583152429201 6.51354633306153 6.0927940858528
444 149 3 0 9.74542239608243 9.60277305142023 3.85090989642777
445 149 4 0 10.7054223960824 9.60277305142023 3.85090989642777
446 149 3 0 10.9454223960824 8.67277305142023 3.85090989642777
447 150 3 0 9.95166196298785 11.0335161529388 4.04441887512803
448 150 4 0 10.9116619629879 11.0335161529388 4.04441887512803
449 150 3 0 11.1516619629879 10.1035161529388 4.04441887512803
450 151 3 0 14.0289930759184 2.1605609233398 0.488283711019903
451 151 4 0 14.9889930759184 2.1605609233398 0.488283711019903
452 151 3 0 15.2289930759184 1.2305609233398 0.488283711019903
453 152 3 0 2.24856361906976 6.06847546570003 12.2575692459941
454 152 4 0 3.20856361906976 6.06847546570003 12.2575692459941
455 152 3 0 3.44856361906976 5.13847546570003 12.2575692459941
456 153 3 0 1.93215542865917 1.98803822550923 1.40272993594408
457 153 4 0 2.89215542865917 1.98803822550923 1.40272993594408
458 153 3 0 3.13215542865917 1.05803822550923 1.40272993594408
459 154 3 0 4.13694546019658 5.16380329424515 4.840958743589
460 154 4 0 5.09694546019658 5.16380329424515 4.840958743589
461 154 3 0 5.33694546019658 4.23380329424515 4.840958743589
462 155 3 0 1.0186677057948 2.00852969818749 3.68293205508962
463 155 4 0 1.9786677057948 2.00852969818749 3.68293205508962
464 155 3 0 2.2186677057948 1.07852969818749 3.68293205508962
465 156 3 0 8.18055495430715 3.08303955052048 6.38505470473319
466 156 4 0 9.14055495430715 3.08303955052048 6.38505470473319
467 156 3 0 9.38055495430715 2.15303955052048 6.38505470473319
468 157 3 0 1.06033980773762 0.648069944409654 13.107546181418
469 157 4 0 2.02033980773762 0.648069944409654 13.107546181418
470 157 3 0 2.26033980773762 -0.281930055590347 13.107546181418
471 158 3 0 12.8065287430957 7.00301397167146 3.96703762351535
472 158 4 0 13.7665287430957 7.00301397167146 3.96703762351535
473 158 3 0 14.0065287430957 6.07301397167146 3.96703762351535
474 159 3 0 11.9555344890989 10.8015494343732 0.910780155099928
475 159 4 0 12.9155344890989 10.8015494343732 0.910780155099928
476 159 3 0 13.1555344890989 9.87154943437316 0.910780155099928