LAMMPS (29 Sep 2021 - Update 1)
# Test LAMMPS input file for single DeFDe

# Initialize simulation

clear

units real
atom_style full
boundary p p p
dielectric 1
special_bonds dreiding

bond_style harmonic
angle_style harmonic
dihedral_style harmonic
improper_style umbrella
pair_style hybrid/overlay hbond/dreiding/lj 4 9.0 11.0 90 lj/cut 8.50000

# Read data file
read_data frag5.dat
Reading data file ...
  triclinic box = (0.0000000 0.0000000 0.0000000) to (15.000000 15.000000 15.000000) with tilt (0.0000000 0.0000000 0.0000000)
  2 by 4 by 4 MPI processor grid
  reading atoms ...
  1502 atoms
  scanning bonds ...
  1 = max bonds/atom
  scanning angles ...
  1 = max angles/atom
  reading bonds ...
  1001 bonds
  reading angles ...
  500 angles
Finding 1-2 1-3 1-4 neighbors ...
  special bond factors lj:    0        0        1       
  special bond factors coul:  0        0        1       
     2 = max # of 1-2 neighbors
     1 = max # of 1-3 neighbors
     2 = max # of special neighbors
  special bonds CPU = 0.002 seconds
  read_data CPU = 0.016 seconds

# Dreiding potential information

bond_coeff 1 350 1.487
bond_coeff 2 350 0.98

angle_coeff 1 50 104.51


improper_coeff 1 40 0

pair_coeff 1 1 lj/cut 0.37 3.95
pair_coeff 1 2 lj/cut 0.0749933330370107 3.55249912033768
pair_coeff 1 3 lj/cut 0.00608276253029822 3.55138705296959
pair_coeff 1 4 lj/cut 0.188172792932453 3.66717466177983
pair_coeff 2 2 lj/cut 0.0152 3.195
pair_coeff 2 3 lj/cut 0.0012328828005938 3.19399984345648
pair_coeff 2 4 lj/cut 0.0381397430510485 3.29813538230316
pair_coeff 3 3 lj/cut 1e-04 3.193
pair_coeff 3 4 lj/cut 0.0030935416596516 3.29710294046152
pair_coeff 4 4 lj/cut 0.0957 3.4046
pair_coeff 4 4 hbond/dreiding/lj 3 j 9.50 2.75 4 9.0 11.0 90

neighbor 2 bin
neigh_modify every 2 one 10000

# Gemoetric relaxation
fix 1 all box/relax iso 1.0 vmax 0.001
minimize 1.0e-4 1.0e-6 10000 10000
WARNING: Using 'neigh_modify every 1 delay 0 check yes' setting during minimization (../min.cpp:188)
Neighbor list info ...
  update every 1 steps, delay 0 steps, check yes
  max neighbors/atom: 10000, page size: 100000
  master list distance cutoff = 13
  ghost atom cutoff = 13
  binsize = 6.5, bins = 3 3 3
  3 neighbor lists, perpetual/occasional/extra = 3 0 0
  (1) pair hbond/dreiding/lj, perpetual, skip from (3)
      attributes: full, newton on
      pair build: skip
      stencil: none
      bin: none
  (2) pair lj/cut, perpetual, half/full from (3)
      attributes: half, newton on
      pair build: halffull/newton
      stencil: none
      bin: none
  (3) neighbor class addition, perpetual
      attributes: full, newton on
      pair build: full/bin
      stencil: full/bin/3d
      bin: standard
Per MPI rank memory allocation (min/avg/max) = 9.207 | 9.525 | 9.628 Mbytes
Step Temp E_pair E_mol TotEng Press Volume 
       0            0 1.5002747e+16    185.59821 1.5002747e+16 1.2192173e+18         3375 
    5404            0   -1055.1104    19.186557   -1035.9238    137.32578    36397.316 
Loop time of 4.408 on 32 procs for 5404 steps with 1502 atoms

100.0% CPU use with 32 MPI tasks x no OpenMP threads

Minimization stats:
  Stopping criterion = energy tolerance
  Energy initial, next-to-last, final = 
    1.50027469347389e+16  -1035.35162086299  -1035.44219905994
  Force two-norm initial, final = 1.6097212e+18 123.67959
  Force max component initial, final = 8.8582859e+17 98.260573
  Final line search alpha, max atom move = 2.0052344e-05 0.0019703548
  Iterations, force evaluations = 5404 5405

MPI task timing breakdown:
Section |  min time  |  avg time  |  max time  |%varavg| %total
---------------------------------------------------------------
Pair    | 1.5913     | 2.5245     | 3.6092     |  37.4 | 57.27
Bond    | 0.0069613  | 0.010729   | 0.01416    |   1.9 |  0.24
Neigh   | 0.092143   | 0.092463   | 0.092824   |   0.1 |  2.10
Comm    | 0.35093    | 1.4355     | 2.3693     |  49.6 | 32.57
Output  | 0          | 0          | 0          |   0.0 |  0.00
Modify  | 0          | 0          | 0          |   0.0 |  0.00
Other   |            | 0.3448     |            |       |  7.82

Nlocal:        46.9375 ave          63 max          32 min
Histogram: 3 3 5 1 6 3 2 4 2 3
Nghost:        2021.78 ave        2066 max        1981 min
Histogram: 6 3 4 1 0 4 5 2 3 4
Neighs:        5080.34 ave        7185 max        3309 min
Histogram: 3 3 5 6 3 2 2 0 6 2

Total # of neighbors = 162571
Ave neighs/atom = 108.23635
Ave special neighs/atom = 1.9986684
Neighbor list builds = 101
Dangerous builds = 0

# MD simulation
velocity all create 300.0 12345 rot yes dist gaussian
timestep 1.0
fix 2 all nvt temp 300.0 300.0 1

# Compute interaction energy
group WAT molecule <> 2 501
1500 atoms in group WAT
group MOL molecule 1
2 atoms in group MOL

compute w WAT group/group MOL pair yes
fix 3 all ave/time 10 5 100 c_w file outa

# Outputs
thermo 100 # Output thermodynamic data every nth step
#dump mf1 all xyz 10000 mol_*.xyz

# Run
run 1000000
Neighbor list info ...
  update every 2 steps, delay 10 steps, check yes
  max neighbors/atom: 10000, page size: 100000
  master list distance cutoff = 13
  ghost atom cutoff = 13
  binsize = 6.5, bins = 6 6 6
  4 neighbor lists, perpetual/occasional/extra = 3 1 0
  (1) pair hbond/dreiding/lj, perpetual, skip from (4)
      attributes: full, newton on
      pair build: skip
      stencil: none
      bin: none
  (2) pair lj/cut, perpetual, half/full from (4)
      attributes: half, newton on
      pair build: halffull/newton
      stencil: none
      bin: none
  (3) compute group/group, occasional, copy from (2)
      attributes: half, newton on
      pair build: copy
      stencil: none
      bin: none
  (4) neighbor class addition, perpetual
      attributes: full, newton on
      pair build: full/bin
      stencil: full/bin/3d
      bin: standard
Per MPI rank memory allocation (min/avg/max) = 8.060 | 8.078 | 8.095 Mbytes
Step Temp E_pair E_mol TotEng Press Volume 
    5404          300   -1055.1104    19.186557    306.33497    1823.1013    36397.316 
    5500    298.08896   -1121.1417     189.4767    402.04342   -941.96208    36397.316 
    5600     302.7496   -1111.3538      170.794    414.00118   -325.91266    36397.316 
    5700    300.24714   -1105.9177     164.2167    401.66358   -513.88442    36397.316 
    5800       301.01    -1116.031    196.61547    427.36221    -602.0685    36397.316 
    5900    288.39534   -1055.2996     172.2175    407.25515    24.869727    36397.316 
    6000    294.82405   -1072.0727    191.90502    438.93285    188.34557    36397.316 
    6100     297.7427   -1139.3246    181.68721     374.5218    315.68113    36397.316 
    6200    305.15547   -1124.5382     187.2644    428.05153    234.32815    36397.316 
    6300     299.3391   -1146.6715    179.43621    372.06647    488.49389    36397.316 
    6400      298.188   -1139.5428    188.06041    382.66908    322.67403    36397.316 
    6500    294.28474   -1142.2155    196.71405    371.18617    191.84549    36397.316 
    6600    292.62772   -1157.8213    200.67384    352.12629   -31.160719    36397.316 
    6700    302.06647   -1184.6375    193.90519    360.77225    -25.44546    36397.316 
    6800    305.65317   -1194.4055    198.70779    371.85444    131.88328    36397.316 
    6900    290.41203   -1161.8468    207.14357    344.65709    -56.90864    36397.316 
    7000    299.17481   -1161.0022    193.05875    370.62328     151.2108    36397.316 
    7100    300.65736     -1153.75    203.71984    395.16974    423.86851    36397.316 
    7200    299.74743   -1129.6154    206.83543    418.34873   -21.465098    36397.316 
    7300    292.14155    -1109.605    196.31311    393.80658    238.86514    36397.316 
    7400    295.46525   -1154.1805    210.12799    377.91688     59.63714    36397.316 
    7500    311.92094   -1139.8252    206.12725    461.89744    331.64451    36397.316 
    7600    301.11552   -1182.4032    207.89212    372.73877    462.64416    36397.316 
    7700    303.70465    -1165.579    197.99208    391.24718     348.3797    36397.316 
    7800    301.07019   -1170.8737    207.76846    383.94177    493.66976    36397.316 
    7900    304.93916   -1181.2372    202.21744    385.33783    99.762113    36397.316 
    8000    293.38655   -1216.1366    207.33303    303.86532    78.125707    36397.316 
    8100    299.32494   -1186.6031    213.08102     365.7164    685.21998    36397.316 
    8200     298.4933   -1197.8975    203.62978    341.24979    76.736513    36397.316 
    8300    293.37804   -1188.1286    203.23457    327.73681    849.02588    36397.316 
    8400    294.79343   -1189.8274    204.71405    333.85022    559.33641    36397.316 
    8500    298.18399   -1161.9674    221.61856    393.78469    498.28934    36397.316 
    8600    299.57257   -1203.6181    215.89747    352.62575    786.56709    36397.316 
    8700    296.16187   -1144.7134    213.21784    393.59067    848.12712    36397.316 
    8800    310.82737    -1196.323    208.30594    402.68545    873.34474    36397.316 
    8900    305.30261   -1182.0864    223.24408    407.14142    855.20628    36397.316 
    9000    298.44378   -1223.2729    219.46589    331.48886    460.96095    36397.316 
    9100     316.6777   -1220.4539    209.53444    405.95863     938.5865    36397.316 
    9200    304.79823   -1249.1358    223.28003    337.87119    664.83191    36397.316 
    9300     302.1033    -1214.786    223.45539    360.33869    508.73514    36397.316 
    9400    310.88354   -1161.8571    219.32306    448.41985    475.02119    36397.316 
    9500    305.24316   -1152.2846    224.40678    437.83984    725.46802    36397.316 
    9600    304.76999   -1206.4463    238.58818    395.74254    516.78539    36397.316 
    9700      298.656    -1139.011    234.04157    431.27597    424.85706    36397.316 
    9800    297.67472   -1189.6252    231.01878    373.24862    346.65462    36397.316 
    9900     302.7376   -1149.9579    234.16286     438.7123     361.0515    36397.316 
   10000    295.76884   -1191.5583    244.50447    376.27385    297.57591    36397.316 
   10100    299.37554   -1196.3254    259.60547    402.74484    945.68384    36397.316 
   10200    306.86157   -1171.3797     252.5895    454.16855    920.28245    36397.316 
   10300    301.84243   -1125.3854     251.5558     476.6726    630.18526    36397.316 
   10400    290.00962   -1182.8766    241.37352    356.05677   -207.39801    36397.316 
   10500    304.01738   -1197.5481     248.6882     411.3734    436.61377    36397.316 
   10600     290.1793   -1193.2663    241.07805    346.13075    105.90111    36397.316 
   10700    294.71139   -1172.1136    257.27347    403.75631    161.92179    36397.316 
   10800    298.30382   -1145.7044    247.75201    436.71737    136.49241    36397.316 
   10900    302.99672   -1175.2861    245.00784    425.38844     230.7074    36397.316 
   11000    296.64573   -1201.4906    263.28166    389.04212    120.09008    36397.316 
   11100    295.94712     -1209.82      256.347    370.65237    186.79528    36397.316 
   11200    286.87279    -1177.862    246.83162    352.49463    256.48199    36397.316 
   11300    300.83422   -1181.2037    263.07004    427.85755    428.30552    36397.316 
   11400    311.74712   -1202.7242    251.21871    443.31219    331.01455    36397.316 
   11500    299.77626   -1222.6074    272.46896    391.11931    154.90586    36397.316 
   11600    295.20009   -1231.2952    242.54213    332.02999    15.962743    36397.316 
   11700    295.37078   -1186.0158    265.06789    400.59878    373.27483    36397.316 
   11800    299.38178   -1204.8438    256.57451    391.22343    794.68619    36397.316 
   11900    293.51166   -1209.7778    271.73033    375.18125    369.79882    36397.316 
   12000    300.22594   -1172.0923    260.08873    431.26608    337.71219    36397.316 
   12100    304.51036   -1183.1868    265.01426    444.26647    503.57124    36397.316 
   12200    304.39663   -1172.8687    263.60811    452.66955    682.93681    36397.316 
   12300    295.80919   -1172.4594     262.7569    413.80577    172.57599    36397.316 
   12400    295.80477   -1223.4025    266.20934    366.29539    19.376527    36397.316 
   12500    307.85098   -1218.9507    270.17309    428.60796   -143.84397    36397.316 
   12600    309.57002   -1220.2837    262.23335    427.02659    72.510444    36397.316 
   12700    294.94996   -1235.9726     276.3126    360.00391    502.52135    36397.316 
   12800    291.06905   -1229.9277    270.45686    342.82913    561.99033    36397.316 
   12900    295.18512   -1231.5972    277.99864    367.11751    498.62714    36397.316 
   13000    296.79304   -1244.1632     265.8639    349.61084    635.82645    36397.316 
   13100    302.57546   -1249.9888    273.38313    377.17616    454.42148    36397.316 
   13200    296.33257   -1245.7439    271.93577     352.0418    135.50285    36397.316 
   13300    293.97955   -1241.5884    263.06411    336.79779   -13.455323    36397.316 
   13400    301.10441   -1208.1789    273.05175    412.07291    238.23226    36397.316 
   13500    312.01265    -1241.465    268.99928    423.53997    603.67343    36397.316 
   13600    297.86376   -1224.2022    291.59131    400.08991    575.22275    36397.316 
   13700    292.60225   -1184.5604    281.82204    406.42138    304.06842    36397.316 
   13800    300.13562   -1209.6347    277.96526    411.19615      530.475    36397.316 
   13900    297.08091   -1165.9793    279.92223    443.14118    558.56928    36397.316 
   14000    310.99442   -1161.5129    278.20002    508.13709    383.55786    36397.316 
   14100    291.56599   -1235.0546    292.71525    362.18402      684.545    36397.316 
   14200    300.34109   -1189.5414    277.43963    431.68305    259.44633    36397.316 
   14300     299.6641    -1213.046    286.28057    413.99045    423.21114    36397.316 
   14400    294.39683   -1207.5078    274.55841     384.2397   -181.40388    36397.316 
   14500    305.95459     -1186.01    281.02298    463.91371    187.14476    36397.316 
   14600    306.05159   -1207.1479     293.9138    456.10063   -404.02407    36397.316 
   14700    309.76689   -1197.0421    283.37693    472.29258    220.93064    36397.316 
   14800    295.85313   -1224.4134    270.28473    369.57622    196.27086    36397.316 
   14900    298.80539   -1241.0436    286.49771    382.36798    254.93198    36397.316 
   15000    302.96409   -1212.1513    274.64883    418.01824    455.19213    36397.316 
   15100    313.50645   -1211.6966    284.09614     475.0888    501.67492    36397.316 
   15200    295.76763   -1200.5421    274.05551    396.83574   -70.582827    36397.316 
   15300    304.51129   -1218.0669    292.85843     437.2347   -56.874689    36397.316 
   15400    305.03549   -1245.0945    297.39545    417.08952    -200.8108    36397.316 
   15500    297.09871   -1228.5029     282.9835    383.75837   -313.51094    36397.316 
   15600    297.80235   -1226.0634    290.30243    396.66506    -128.9051    36397.316 
   15700    307.67536   -1244.5489     288.4099    420.46082    518.78107    36397.316 
   15800    307.17561   -1248.4422    281.90482    407.82649    236.13653    36397.316 
   15900    309.39254   -1235.2849    304.37232    453.37019    397.54825    36397.316 
   16000    303.99037   -1259.4529    298.80846      399.468    427.38596    36397.316 
   16100    300.60637   -1280.4116     283.2431    347.80333    152.36863    36397.316 
   16200    296.90343   -1257.3335    319.53639    390.60694    429.22769    36397.316 
   16300     301.2845   -1263.6529    284.04376    368.39669    667.00873    36397.316 
   16400    305.14339   -1287.0404    297.85016    376.08109    797.61632    36397.316 
   16500    295.46175   -1272.1774    305.10729    354.88367    321.75432    36397.316 
   16600    310.38035   -1316.9497    284.16924    355.92209    346.10076    36397.316 
   16700    293.58437   -1281.9355    301.57055    333.18899    747.74261    36397.316 
   16800    306.67667     -1322.13    288.05245    338.05394    753.66463    36397.316 
   16900    301.75524   -1297.5452    301.26946    353.83636    921.09337    36397.316 
   17000    309.61365   -1266.0116    303.83999    423.10054    333.14739    36397.316 
   17100    292.10376   -1266.8969    318.94157    358.97407    599.50234    36397.316 
   17200    301.79772   -1226.8505    323.24068    446.69231    862.13146    36397.316 
   17300    296.46542   -1256.4193    296.37477    366.39986    549.99568    36397.316 
   17400    297.82082   -1251.0052    316.31568    397.81911    68.675069    36397.316 
   17500     308.9552   -1250.1465    313.42358    445.60312    300.42518    36397.316 
   17600    299.05843   -1287.9802    305.28202    355.34778    434.55587    36397.316 
   17700    303.58545    -1249.819    313.88743    422.36926    653.60135    36397.316 
   17800    292.15112   -1278.7406    304.28332    332.68406    681.16142    36397.316 
   17900    294.82282   -1229.6254    316.13215     405.6018    394.61136    36397.316 
   18000    293.86654     -1251.77    302.20832    365.25481    507.24479    36397.316 
   18100    308.04542   -1251.3365    320.56234    447.48142    339.56435    36397.316 
   18200    293.13318   -1266.0535    295.28298    340.76477   -403.06745    36397.316 
   18300    294.78147   -1261.7076    323.30704    380.50951    178.29834    36397.316 
   18400    291.89135   -1278.2822     309.1885    336.88532    506.66454    36397.316 
   18500      303.829   -1274.4807    314.09577    399.00553    419.12021    36397.316 
   18600    290.27048   -1271.4392    309.07954    336.36734    383.71041    36397.316 
   18700     302.5413   -1289.5496     316.8277    380.90711    135.37334    36397.316 
   18800    298.16196   -1230.7083    318.73431    422.06099    250.67222    36397.316 
   18900    303.81211   -1250.5104    322.39751      431.202    708.76369    36397.316 
   19000    295.17264   -1242.3361    334.39147    412.71556    161.93293    36397.316 
   19100    302.50977   -1272.1424    313.14663    394.49218    238.28985    36397.316 
   19200    307.99573   -1272.7908    321.93227    427.17475    224.01026    36397.316 
   19300    301.31791   -1234.8091    327.07191    440.41814     101.5107    36397.316 
   19400    301.31601   -1253.7614    300.79934    395.18482    -2.396205    36397.316 
   19500    289.65216   -1241.1936    336.08308    390.84995   -389.69541    36397.316 
   19600    301.65453   -1254.1054    311.24156    406.79765    84.694799    36397.316 
   19700    302.45182   -1264.8853    333.12034    421.46374    76.984784    36397.316 
   19800    307.71179   -1302.1608    309.93807    384.54013    198.79078    36397.316 
   19900    298.07776   -1290.2666    336.62307    380.01471    199.23867    36397.316 
   20000    299.90732   -1264.6663    304.96296    382.14073   -92.377105    36397.316 
   20100    303.64685   -1269.4111    318.11692    407.28127   -120.97259    36397.316 
   20200    307.80731   -1271.4223     337.7117    443.47963    197.23523    36397.316 
   20300    308.07104     -1294.08     314.0649    398.35511    182.03155    36397.316 
   20400    289.25931   -1285.2401    306.68026    315.64294   -68.649813    36397.316 
   20500    297.41114   -1251.2855    327.02605    406.41628    471.94239    36397.316 
   20600    315.03685    -1262.664    322.50652    469.37915    658.36091    36397.316 
   20700     309.3739   -1276.3541     328.5668    436.41218    409.42786    36397.316 
   20800    293.80473   -1276.8269    326.32548    364.03849     324.1978    36397.316 
   20900    290.51882   -1306.7021    323.81868    316.95467    197.67123    36397.316 
   21000     299.8246   -1302.0392    315.52025    354.95502    486.35933    36397.316 
   21100      306.567   -1276.0925    323.65305    419.20137    906.81993    36397.316 
   21200    303.40734   -1280.8776    325.84003    402.46627    351.38874    36397.316 
   21300    293.18519   -1251.3213    322.52267    382.96934    367.08516    36397.316 
   21400    309.14453   -1271.7412     333.1135    444.54547    377.81931    36397.316 
   21500     298.6818   -1251.5886    325.54551     410.3178    278.90952    36397.316 
   21600     298.9458   -1243.8393    331.03502    424.73774     119.9999    36397.316 
   21700    298.13243   -1228.7668    322.60636    427.74249   -304.57561    36397.316 
   21800    307.58089   -1205.4464    329.24962    499.98037    151.13415    36397.316 
   21900    291.53228    -1213.393     330.3346     421.3141    -50.32023    36397.316 
   22000    298.65378   -1228.5583    322.84749    430.52466    38.627988    36397.316 
   22100    298.96489   -1245.5805    331.93321    423.98022   -610.16628    36397.316 
   22200    309.39431   -1196.5786    326.66951    514.38161   -180.85082    36397.316 
   22300    308.76219   -1229.0262     331.8554    484.29178   -551.19465    36397.316 
   22400    304.26105   -1242.3818    317.74392    436.68569   -111.54304    36397.316 
   22500     301.0232   -1213.7481    336.89707    469.98572   -484.38418    36397.316 
   22600    299.81711   -1266.8758    308.43647    383.00118   -77.164005    36397.316 
   22700    299.76966   -1272.7308    306.09813    374.59551   -354.58935    36397.316 
   22800    311.30247   -1255.1664    324.96849    462.63037   -158.23405    36397.316 
   22900    296.70193   -1250.6832    316.63181    393.45112    269.67208    36397.316 
   23000    303.91575    -1278.947    334.94134    415.77288   -45.162738    36397.316 
   23100    295.02903   -1279.8216    321.52559    361.72169    26.036082    36397.316 
   23200    304.30788   -1263.4918    307.80202    405.84325    125.06121    36397.316 
   23300      300.496   -1258.9363    324.08153     409.6232    695.87598    36397.316 
   23400    289.81806   -1311.5263    328.51011    313.68663    492.70004    36397.316 
   23500    302.06352   -1269.7808    311.72152    393.43211     962.8046    36397.316 
   23600    301.43304   -1263.8913    324.21219     408.9913     857.7551    36397.316 
   23700    293.21424   -1259.1957    316.25515    368.95741    1079.4283    36397.316 
   23800    304.04436   -1258.4155    323.89801    425.83653    709.49911    36397.316 
   23900    294.14288   -1245.9465    334.05113    404.15749     1048.079    36397.316 
   24000    298.87039    -1247.467    325.82505    415.56276    64.990149    36397.316 
   24100     305.7204   -1258.4399    312.40404    421.81712    337.54334    36397.316 
   24200    301.14805   -1266.1018    330.30319    411.59676   -42.592422    36397.316 
   24300    314.06157   -1202.6192    334.35156    536.90537    193.23309    36397.316 
   24400    306.92892   -1205.8688    326.57017    493.96144    312.90582    36397.316 
   24500     302.4455   -1251.5957    325.35808    426.96281    86.755762    36397.316 
   24600     302.7955   -1216.7728    312.61984    450.61344    290.63123    36397.316 
   24700    298.21883   -1243.1178    319.55031    410.72203    357.11264    36397.316 
   24800    289.82506    -1261.839    331.94124    366.83633    -36.74256    36397.316 
   24900    304.60795   -1239.9024    335.45359    458.42687    399.15265    36397.316 
   25000    307.23411   -1286.8698    331.39019      419.146    246.98996    36397.316 
   25100    288.49154   -1273.9508    317.85212    334.66903    216.79544    36397.316 
   25200    294.81374   -1257.6123    313.89838    375.34052    159.56042    36397.316 
   25300    290.92296    -1270.817    326.57794    357.40722    234.46866    36397.316 
   25400    293.23113   -1284.5074    312.30291    339.76904    22.039813    36397.316 
   25500    294.06936   -1298.3734    326.03316    343.38365    518.45471    36397.316 
   25600    299.87948    -1288.792    324.14343    377.07095    477.18169    36397.316 
   25700    301.96832   -1292.1486    332.77431     391.6911    251.91016    36397.316 
   25800    298.19456   -1262.9817    320.76064    391.95984    916.30202    36397.316 
   25900    302.22306   -1300.8482    323.94795    375.30495    386.42957    36397.316 
   26000    296.75525   -1299.5201    325.94779    354.16879    164.40528    36397.316 
   26100    300.43397   -1233.8902    337.84983    448.16004   -30.704101    36397.316 
   26200    310.42858   -1257.9114    335.92162    466.92845    652.74665    36397.316 
   26300    301.44734   -1264.7116    324.79658    408.81942    335.63622    36397.316 
   26400    298.68191   -1275.9515    308.85655    369.26649    123.89894    36397.316 
   26500    295.21083   -1283.0475    309.45541    347.23895   -38.139753    36397.316 
   26600    297.93004   -1290.5136    336.77648    379.26025    158.94941    36397.316 
   26700    298.94854   -1293.7764    335.78771    379.56564   -59.904157    36397.316 
   26800     292.4957   -1301.0464    328.27267    335.90934    83.597728    36397.316 
   26900    310.57124   -1277.8543    333.07399    444.77626    510.21454    36397.316 
   27000    294.08566   -1285.5439    334.55138    364.80435    191.34647    36397.316 
   27100    296.48388   -1281.8236     316.1453    360.84864    206.72674    36397.316 
   27200    306.85422    -1304.851    335.80435    403.87923    211.92607    36397.316 
   27300    299.88518   -1251.9293    337.00986     426.8256    101.13518    36397.316 
   27400    303.81621    -1296.565    317.97721     380.7454    653.56154    36397.316 
   27500    297.57728   -1326.9371    337.24374    341.72572      350.594    36397.316 
   27600    302.47085   -1259.6377     333.0043     426.6804    165.59071    36397.316 
   27700     293.3299   -1294.5552    322.85148    340.71173   -166.62308    36397.316 
   27800    290.55429   -1290.7194    320.59549    329.87291     42.26812    36397.316 
   27900    305.80823   -1327.1509    315.33791      356.433    168.46245    36397.316 
   28000    308.37215    -1326.907    339.75217    392.56256    848.11283    36397.316 
   28100     305.4645      -1296.5    346.53686    416.74484    427.28898    36397.316 
   28200    295.48203    -1299.221    338.63089    361.45438    483.18685    36397.316 
   28300    300.76015   -1298.3395    316.83992    364.16025    281.39349    36397.316 
   28400    303.25081   -1290.9897    328.35426    394.16814    527.99576    36397.316 
   28500    300.20673   -1320.7352    337.11545    359.56393    190.71223    36397.316 
   28600    287.96229   -1291.8425    333.54295     330.1001    498.13354    36397.316 
   28700     305.7231   -1286.9545    326.35788    407.26841    1124.7694    36397.316 
   28800      294.336   -1286.2067    331.88558    362.59586    613.26352    36397.316 
   28900    299.10978    -1301.194     337.6163    374.69803   -217.79939    36397.316 
   29000    296.68728   -1308.2015    315.63181    334.86738    158.96405    36397.316 
   29100    302.46563   -1287.6579    353.45254    419.08511   -119.27093    36397.316 
   29200    312.78169   -1280.5141      341.187    460.11945    233.14958    36397.316 
   29300    308.64637   -1299.3913    337.04851    418.60157     132.4922    36397.316 
   29400    294.12345   -1342.6719     325.8269    299.12094    32.733494    36397.316 
   29500    289.59953    -1324.421    340.84712    312.15115   -577.01779    36397.316 
   29600    301.74508   -1280.9592    331.16409    400.27143   -367.30381    36397.316 
   29700    304.94889   -1267.9005    335.53526    432.03578    71.065917    36397.316 
   29800    296.28083   -1246.6269    353.45513    432.44669     118.2468    36397.316 
   29900    290.86634   -1276.5335    339.15477    364.01426   -588.65299    36397.316 
   30000    312.02645   -1305.9051    332.38934    422.55172   -118.72778    36397.316 
   30100    296.43754   -1317.8731    353.97112    362.41766   -148.61602    36397.316 
   30200    293.85661   -1314.7524    336.74611    336.76572    173.08845    36397.316 
   30300     299.1206   -1288.4159    349.27659    399.18483   -35.621231    36397.316 
   30400    284.43884   -1266.5506    351.84805    357.93257    64.683087    36397.316 
   30500    294.90442   -1317.0108    339.29218    341.74147    794.81735    36397.316 
   30600    304.59813   -1340.4883    342.61869    364.96213    916.27683    36397.316 
   30700     294.5894   -1294.4359    359.74844    383.36324    871.37142    36397.316 
   30800    286.70152   -1293.9856    334.96323    323.73638    760.34682    36397.316 
   30900    297.11406   -1307.6475    346.70079     368.3998    1046.5831    36397.316 
   31000     290.5042   -1290.5076    361.39556    370.66063    977.32382    36397.316 
   31100    296.36692   -1337.0927      356.594    345.50495     840.0561    36397.316 
   31200    298.67429   -1284.8872    341.13069    392.57076    388.61128    36397.316 
   31300     299.2744   -1298.7169    359.52192    399.81736    -14.63633    36397.316 
   31400    297.57086   -1268.8189    339.55987    402.13126   -175.25519    36397.316 
   31500    314.33913   -1294.7467    351.52284    463.19102    169.28354    36397.316 
   31600     292.5147    -1265.033    353.02357    396.75864    -73.62388    36397.316 
   31700    295.13182   -1288.0064    351.51364    383.98484    69.554006    36397.316 
   31800    294.82403   -1289.4238    363.36047    393.03714   -222.42952    36397.316 
   31900    303.62221   -1262.1583    347.51242    443.81937   -50.046991    36397.316 
   32000    303.75093   -1296.8371    359.75506     421.9591     462.1995    36397.316 
   32100    298.38426   -1279.4472     344.5481    400.13054    62.276311    36397.316 
   32200    303.60217   -1299.0298    345.51728    404.86309    458.46186    36397.316 
   32300    304.32293    -1319.465    349.14888    391.28433    103.42647    36397.316 
   32400    305.23729   -1314.4843    354.24844    405.45553    126.49575    36397.316 
   32500    299.76237   -1342.6569    342.80479    341.34341    376.12887    36397.316 
   32600    297.14307   -1340.4713    327.87581    316.88079    175.41151    36397.316 
   32700    304.18149   -1348.1164    351.56462    364.41578    424.59553    36397.316 
   32800    289.31793    -1359.866    342.38293    276.98205    107.31584    36397.316 
   32900    299.05142   -1331.5108    354.44156    360.94535    51.495247    36397.316 
   33000      291.792   -1309.3647    355.00499    351.17492   -348.09422    36397.316 
   33100     296.7943   -1310.6262    364.83445    382.12408   -403.33388    36397.316 
   33200    303.22771   -1329.6544    369.17039    396.21618    36.760287    36397.316 
   33300    308.36194   -1280.0693    375.33883    474.94123    346.46673    36397.316 
   33400    305.71796   -1319.3965    380.70803    429.15353    56.946816    36397.316 
   33500    293.69852   -1280.0078    361.41751    395.47439   -94.170661    36397.316 
   33600    296.76537   -1306.6183     354.7521    375.92024    138.46343    36397.316 
   33700    298.83297    -1318.325    373.15845    391.87069   -108.69288    36397.316 
   33800    299.36391   -1339.0035    358.61022    359.01951   -544.81758    36397.316 
   33900    298.09237   -1341.6277    341.83623     333.9322   -80.781021    36397.316 
   34000    302.92122   -1292.1478    379.17822    442.35931   -172.39763    36397.316 
   34100    299.78165   -1291.3867    374.88812    424.78321    11.338687    36397.316 
   34200     295.6352   -1339.0748    352.56848    336.22344   -68.258651    36397.316 
   34300    299.60379   -1346.1019    355.59416    349.97834    275.48153    36397.316 
   34400    294.66312   -1343.3598    356.54114    331.56186    1011.9591    36397.316 
   34500    303.97284   -1320.1676    354.96512    394.83157      767.329    36397.316 
   34600    296.06793   -1327.8394    358.94137     355.7679    404.40397    36397.316 
   34700    295.12278   -1327.0733    342.70419      336.068    473.07202    36397.316 
   34800    307.70942   -1307.4121    354.32106    423.66124   -28.097564    36397.316 
   34900    292.63662   -1309.9593    361.11671    360.47101    285.11011    36397.316 
   35000    306.56919   -1299.9055    344.84605    416.59119   -69.773729    36397.316 
   35100    303.85766    -1290.507    373.15352    442.16516    26.681272    36397.316 
   35200    304.33949   -1315.3215    356.39261    402.74563    122.66803    36397.316 
   35300    297.10911   -1316.7105    356.57572    369.18955    362.66539    36397.316 
   35400    309.30038   -1338.1281     371.2211    416.96349   -9.7241308    36397.316 
   35500    296.06312   -1333.5504    357.80583    348.89985   -10.006685    36397.316 
   35600    310.18201   -1296.9914    388.16639    478.99005    500.43455    36397.316 
   35700    301.96856   -1308.9525    392.30027    434.41422    53.843099    36397.316 
   35800     289.4352   -1292.1949    372.45731    375.25219   -261.67558    36397.316 
   35900     305.6997   -1275.7869    364.62837    456.60183   -223.04109    36397.316 
   36000    304.35022   -1306.4368    348.83304    404.11876    -469.3771    36397.316 
   36100      296.018   -1318.0604    352.44632    358.82844   -91.582569    36397.316 
   36200    302.56817   -1330.3308    346.49685    369.91529    -353.5453    36397.316 
   36300    297.94235   -1285.6479     355.2473    402.65189    206.94823    36397.316 
   36400     310.3821    -1331.513    353.17564    410.37296   -294.92513    36397.316 
   36500    299.06599   -1317.7626    357.41157    377.72879    83.349327    36397.316 
   36600    289.30192   -1298.8538    356.93165    352.47124    195.84922    36397.316 
   36700     298.6349   -1348.6236    350.26607     337.7935    302.63858    36397.316 
   36800    291.60022   -1343.6693    351.65303    312.66028    594.67281    36397.316 
   36900    292.10203   -1369.4053    351.20963    288.72603    195.52068    36397.316 
   37000    302.89055   -1354.3145    336.57966    337.45682   -27.637522    36397.316 
   37100    316.24426   -1350.3897    345.37744    409.92654    186.10177    36397.316 
   37200    297.87338   -1354.8751    359.98071    337.84943   -574.24915    36397.316 
   37300    296.68997   -1383.5607    362.71004    306.59836   -849.51939    36397.316 
   37400    295.73389   -1372.6761    365.01861    315.51383    47.188782    36397.316 
   37500    300.64417   -1373.0678    319.96818    292.04132    353.39865    36397.316 
   37600    304.35295   -1344.5183    356.91766    374.13406    223.12869    36397.316 
   37700     299.5438   -1319.6472    385.09207    405.66248    421.21814    36397.316 
   37800    306.22563   -1370.2106    357.21715    357.11998    184.30307    36397.316 
   37900    303.20259   -1391.1433    356.29299     321.7375    924.03517    36397.316 
   38000    293.38251   -1342.1132    375.36264    345.90028    14.209984    36397.316 
   38100    303.06591   -1406.3417    363.88319    313.51778   -388.54329    36397.316 
   38200    300.78819   -1357.5632    358.42992    346.65196   -129.76666    36397.316 
   38300    301.02575   -1331.0537    350.59688    366.39134    370.01542    36397.316 
   38400    291.55652   -1433.2537     351.5846    222.81189    131.34233    36397.316 
   38500    295.52907   -1389.7399     353.1525    285.66753    83.262755    36397.316 
   38600    299.31599   -1367.4977     369.9195    341.62015    125.95497    36397.316 
   38700    304.18532   -1371.3435    355.34653    344.98776    549.30612    36397.316 
   38800    302.38175   -1371.1496    351.23546    333.00102    57.028341    36397.316 
   38900    303.52658   -1398.1896     345.1083    304.95609    275.48771    36397.316 
   39000    294.52133   -1415.3711    349.84197    252.21702   -536.04216    36397.316 
   39100    292.41923   -1374.1883    368.23431    302.38689   -302.54237    36397.316 
   39200    305.32456   -1380.5453    347.05247    332.58912    120.52534    36397.316 
   39300    297.88051    -1372.845    359.77947    319.71025    -271.5115    36397.316 
   39400    304.55888   -1315.3736    367.75664    415.03915   -464.01609    36397.316 
   39500    300.99188   -1286.2171    353.35917    413.83869   -894.77449    36397.316 
   39600    309.32949   -1334.6295     362.8307    412.20194   -1012.4473    36397.316 
   39700    297.14452   -1302.0125    363.32539     390.7957   -914.56019    36397.316 
   39800    309.87367   -1324.3846      364.755    426.80589   -163.22702    36397.316 
   39900     301.6702   -1305.9712     367.2931    411.05352   -262.93791    36397.316 
   40000    308.71448   -1342.0747    386.49534    425.66969   -23.335143    36397.316 
   40100    292.18962   -1327.2174    370.54479    350.64099    61.013722    36397.316 
   40200    297.37168   -1334.8833    364.73955    360.35545     47.78424    36397.316 
   40300    295.81173   -1329.7505    367.82892    361.59803   -170.82312    36397.316 
   40400     296.6578   -1327.0322    354.24026    354.51315    580.59118    36397.316 
   40500    288.50595   -1313.5134    368.95382    346.27253    46.902804    36397.316 
   40600    303.19871   -1352.7662    363.02913    366.83332    558.83776    36397.316 
   40700    300.97665   -1346.5401    371.31566    371.40401    327.61895    36397.316 
   40800    306.93834   -1326.9378    371.51786    417.88228    714.06503    36397.316 
   40900    302.89814   -1354.9291    371.66219    371.95872    337.73079    36397.316 
   41000    290.16088    -1342.556    392.89526    348.57585    586.09357    36397.316 
   41100    304.37568   -1291.8699    371.63935    441.60581    787.84086    36397.316 
   41200    296.82759   -1295.3073    385.86016    418.61761    327.60088    36397.316 
   41300    302.60318   -1352.5651    372.97469    374.31553    606.59103    36397.316 
   41400    298.40207   -1347.8698    390.83062     378.0701    505.08187    36397.316 
   41500    307.87239   -1301.0126    392.94044    469.40923    408.51755    36397.316 
   41600     306.4378   -1311.9875    369.77561    428.85084    375.00094    36397.316 
   41700    296.77741   -1293.1586    401.00998    435.69164    3.7852985    36397.316 
   41800    301.99953   -1331.7387    386.79201    406.25841    125.53048    36397.316 
   41900    305.00491   -1289.1281    390.22317    465.74679    280.37808    36397.316 
   42000    297.36462   -1290.4966    385.29663    425.26759    312.00075    36397.316 
   42100    296.22015   -1310.1364    378.59491    393.80554    183.10527    36397.316 
   42200    304.82197   -1336.1779    388.27793    415.93324    296.09673    36397.316 
   42300    304.30944   -1340.1577     381.5449    402.92726   -67.662792    36397.316 
   42400    300.28886   -1375.7951    380.28731    348.04334   -11.437532    36397.316 
   42500    306.55868   -1343.8016    379.06572    406.86773    61.094567    36397.316 
   42600    298.41959   -1349.5695    383.50531    369.12347      702.708    36397.316 
   42700    310.08939   -1355.9945    382.87618    414.28233    136.43009    36397.316 
   42800    297.10534   -1363.9285    365.94141     331.3204     114.5995    36397.316 
   42900    313.97519   -1369.3116    377.99467    413.46959   -327.60653    36397.316 
   43000    302.44555   -1390.5972     364.8896    327.49309   -88.202229    36397.316 
   43100    302.63095   -1380.0119    363.49296    337.51123    347.50161    36397.316 
   43200    300.02741   -1378.5005    378.67075    342.55159   -396.26096    36397.316 
   43300    302.43606   -1361.1596    379.94657    371.94513   -144.76855    36397.316 
   43400    297.55682   -1319.0293    391.61796    403.91619    298.28795    36397.316 
   43500    298.37268   -1335.4785    370.22402    369.72331   -26.313243    36397.316 
   43600    305.54233   -1359.5858    379.86365    387.33414   -48.666444    36397.316 
   43700    298.56748   -1353.6186    373.48718    355.71795    261.39929    36397.316 
   43800    309.56258   -1357.9649    377.10484    404.18355    148.84958    36397.316 
   43900    300.30099   -1411.7365    397.16531    329.03423   -345.31036    36397.316 
   44000    302.44855   -1408.1743    371.93978    316.97952    243.82583    36397.316 
   44100    302.24544   -1434.2595    385.53892    303.58472    213.32921    36397.316 
   44200    304.85617   -1381.0585    374.37453    357.30222    125.15769    36397.316 
   44300    303.43156   -1377.1381    391.50268    371.97683    347.76678    36397.316 
   44400    301.50113   -1353.4222     379.3422    374.89507    612.78131    36397.316 
   44500    306.28015   -1383.1848    365.96704    353.13963    174.46712    36397.316 
   44600    289.45263   -1333.4705     397.3234    358.92066   -330.80513    36397.316 
   44700    296.02357   -1381.0695      398.494    341.89193    183.33834    36397.316 
   44800    291.92254   -1376.7545     372.9641    302.32828   -609.18686    36397.316 
   44900    293.04419   -1349.9942    392.57101     353.7139   -5.1512413    36397.316 
   45000    292.98415   -1362.1946     396.1328    344.80664    115.01712    36397.316 
   45100    303.98999   -1352.6108    394.62359     402.1235   -43.416409    36397.316 
   45200    301.18727    -1404.364     364.2903    307.49717    189.16306    36397.316 
   45300    300.94519   -1366.8057    386.14627    365.82835    270.98027    36397.316 
   45400    296.14622   -1349.5806    389.50719    364.94284    109.39304    36397.316 
   45500    296.09646   -1387.1027    395.10579     332.7966    284.91787    36397.316 
   45600    306.54591   -1401.0045    374.36369    344.90565    233.38142    36397.316 
   45700    295.04086   -1393.4796    379.91737    306.50836    615.79974    36397.316 
   45800    305.02203    -1434.548    375.47242    305.65271    611.85957    36397.316 
   45900    311.87297   -1410.9588    387.73045    372.15238    560.86992    36397.316 
   46000    306.60055   -1408.4217    386.35025    349.71946    679.61389    36397.316 
   46100    291.12865   -1416.3044    408.08173      294.344    588.95513    36397.316 
   46200    303.17102   -1437.9329    386.25824    304.77186    298.13599    36397.316 
   46300    296.98859   -1390.7073    385.32175     323.3996    561.07907    36397.316 
   46400    308.32367   -1389.6075    372.28753    362.18053     266.1751    36397.316 
   46500    297.24309   -1358.7425    385.50194    356.68323    68.639838    36397.316 
   46600    297.72581   -1399.6855    383.33609    315.73421    18.940406    36397.316 
   46700    310.61803   -1378.0751    395.07836    406.76922   -68.063156    36397.316 
   46800    304.13223   -1369.6215    401.83655    392.96226    139.27015    36397.316 
   46900    303.92695   -1361.5269    399.33122    397.63301    16.400207    36397.316 
   47000    294.80787   -1360.5522    388.67626    347.15223   -71.964792    36397.316 
   47100    299.55895   -1369.6579    404.31716    374.94469    198.74806    36397.316 
   47200    312.41731   -1401.2894    380.80387    377.33076    68.033227    36397.316 
   47300    300.48124   -1338.3945    390.26966    396.28708    185.22957    36397.316 
   47400    304.81697   -1407.5151     412.7198    369.01549    -276.8163    36397.316 
   47500    310.92638    -1370.101    406.05319     427.0977   -767.57156    36397.316 
   47600    298.80349   -1404.8722    388.30631    320.33946   -558.80157    36397.316 
   47700    299.35261   -1381.8712    421.75077    379.24178    -627.9014    36397.316 
   47800    302.20506   -1361.7784    372.89486    363.24109   -216.57294    36397.316 
   47900     296.3104   -1386.1213    378.73068    318.36012   -244.77703    36397.316 
   48000    286.96634   -1333.5625    408.20302    358.58415   -541.64488    36397.316 
   48100    312.67697   -1388.7772    365.45327    375.65411   -355.43481    36397.316 
   48200    295.61907   -1402.4545    396.65505    316.85823   -111.96605    36397.316 
   48300    300.57366    -1361.978    410.19883    393.04625   -251.33705    36397.316 
   48400    305.66673   -1398.3914    399.80732    369.02874     58.28429    36397.316 
   48500    297.10403   -1375.9916    405.17689    358.48697   -83.873478    36397.316 
   48600    293.11829   -1347.3078     370.2096     334.3705    237.48643    36397.316 
   48700    310.85639   -1373.4548    417.70522    435.08281    698.30313    36397.316 
   48800    302.33042   -1403.1951    389.79933    339.28976    688.27119    36397.316 
   48900    296.39938   -1392.1792    414.54748    348.51717    187.35519    36397.316 
   49000     296.8632   -1412.7416    394.33044    309.81297   -126.06433    36397.316 
   49100    307.88108   -1368.2461    400.74126    410.01543     302.2064    36397.316 
   49200    290.24797   -1365.3788    401.91843    335.16596    -38.77862    36397.316 
   49300    289.57246   -1368.1509    383.41756    310.87054    75.305673    36397.316 
   49400    296.46336   -1395.0478    388.47885    319.86617    168.17529    36397.316 
   49500    292.80254   -1380.5787    396.09283    325.57007    572.83171    36397.316 
   49600    305.23662   -1404.2779    396.90505    358.31556    298.96252    36397.316 
   49700    286.99642    -1359.684     394.9017    319.29597    869.74886    36397.316 
   49800    302.32197   -1327.9501    420.30586    445.00344    153.28607    36397.316 
   49900    294.47242   -1351.3858    398.34163    364.48315    3.8515507    36397.316 
   50000    290.56266   -1336.3071    409.52608    373.25319   -131.84432    36397.316 
   50100     300.0645   -1350.7532    409.78007     401.5742   -138.86895    36397.316 
   50200    298.25595   -1383.1405    417.14297    368.45797   -543.84163    36397.316 
   50300    300.83492   -1325.7739    433.66423    453.88465   -260.45107    36397.316 
   50400     295.8303   -1346.6431    423.07028    400.02993    82.817516    36397.316 
   50500    299.79186   -1363.7941    426.39887    403.93227    418.70269    36397.316 
   50600    305.86206   -1354.5682    424.10136    438.01994    139.45947    36397.316 
   50700    302.22335   -1324.1094     418.8539    446.95095   -111.09564    36397.316 
   50800    308.30625   -1396.8005    397.17348    379.79551   -268.91752    36397.316 
   50900    291.67509   -1396.0042    428.51641    337.52369    311.30864    36397.316 
   51000     305.6643   -1419.8119    398.50721    346.29729    642.15823    36397.316 
   51100    298.34058   -1377.6145    402.70554    359.92525    592.40767    36397.316 
   51200    295.01043    -1384.349    399.77185    335.35734   -255.84878    36397.316 
   51300    301.00425   -1387.0721    425.55772    385.23756   -240.22556    36397.316 
   51400    297.95152   -1382.9147    411.66628    361.84498   -848.58508    36397.316 
   51500    283.78144    -1425.177    405.33511    249.85189   -290.84134    36397.316 
   51600    295.36051    -1435.473    410.60689    296.63469   -134.54267    36397.316 
   51700    304.36262   -1427.7129    418.28522    352.35033   -262.68246    36397.316 
   51800    289.15248   -1453.0056    408.06803    248.78721    363.07762    36397.316 
   51900    307.13819   -1454.7231    405.69039    325.16371   -148.37314    36397.316 
   52000    289.83141   -1422.6567    402.70361    276.80944    2.7861346    36397.316 
   52100    298.81216    -1461.658    382.24558    257.53168   -265.13037    36397.316 
   52200    304.40669   -1399.1977    400.16739     362.9449    227.20657    36397.316 
   52300    293.26029   -1435.4509    399.77402    276.42707    510.41714    36397.316 
   52400    301.48998   -1411.3966    400.13754    337.66615     220.2785    36397.316 
   52500    301.91153    -1392.121    415.45188    374.14218   -372.68978    36397.316 
   52600    294.30613    -1354.421    422.27529    384.63752   -113.12544    36397.316 
   52700    307.69916   -1322.0371    411.80534    466.47453    -403.2747    36397.316 
   52800    309.20965   -1379.1277    399.88432    404.22122   -640.49927    36397.316 
   52900     299.4991   -1342.3108    426.46937    424.17621   -299.57057    36397.316 
   53000    310.20139   -1373.7262    416.07774    430.25335   -591.20645    36397.316 
   53100    297.77023   -1433.8623    410.35859    308.77862   -192.83286    36397.316 
   53200    302.56921   -1415.3042    405.58017    344.02989     297.9016    36397.316 
   53300    298.43932   -1392.7725    410.95105     353.4545    503.65305    36397.316 
   53400    295.33441   -1405.0165    398.87828    315.24578   -322.98545    36397.316 
   53500    299.49763   -1375.5095    408.63017    373.13174     395.3722    36397.316 
   53600    303.49718   -1410.7464    419.24623     366.4057    418.76129    36397.316 
   53700    295.44275   -1400.9187    411.04358    331.99363    806.49111    36397.316 
   53800     297.8676   -1410.9167    415.58498    337.38625    910.25355    36397.316 
   53900    296.40995   -1389.9188    396.83328    333.11068    341.24132    36397.316 
   54000    295.49872   -1413.6699    414.46723    322.91655    807.46517    36397.316 
   54100    287.52034   -1423.3204    424.67763    287.77961    566.55694    36397.316 
   54200    298.76473   -1433.6917    429.81421    332.85447   -25.963639    36397.316 
   54300    311.99632   -1384.0385    409.20694    421.10113   -257.49858    36397.316 
   54400    302.37951   -1421.9465    408.67841     339.6371    -605.9099    36397.316 
   54500    291.24825   -1395.4224    398.38415    306.06344   -514.46406    36397.316 
   54600    303.08914    -1407.119    420.19358    369.15476    -502.4538    36397.316 
   54700    304.11643    -1405.552    394.67175    349.79627    206.68504    36397.316 
   54800    302.96544   -1397.7082    405.43665    363.25513    91.154596    36397.316 
   54900    299.19162   -1420.0918    442.61178    361.16187    266.85562    36397.316 
   55000    312.95412   -1437.0648    432.76442    395.91764    117.36465    36397.316 
   55100    306.12457   -1390.2718    402.91588    382.30534    249.19336    36397.316 
   55200    297.79611   -1381.8213    403.85775    354.43456    278.15801    36397.316 
   55300    293.83924   -1408.5602    422.37384     328.5079    131.35995    36397.316 
   55400    307.15929   -1391.4396    408.01676    390.86797    549.52733    36397.316 
   55500    306.36812   -1409.0651    413.34858    375.03449   -29.461676    36397.316 
   55600     307.3881   -1424.0354    410.20695    361.48612   -25.317862    36397.316 
   55700    291.48811   -1449.2263    405.49051    260.43905   -269.58405    36397.316 
   55800    298.85626   -1425.4877    403.28296    314.93672    421.51066    36397.316 
   55900    303.76292   -1422.4617    390.27364    326.90675   -219.07767    36397.316 
   56000    299.45265   -1437.5869    388.82211      291.045   -157.26634    36397.316 
   56100    294.42304   -1460.5266    412.66798    269.44772   -307.29305    36397.316 
   56200    302.86162   -1428.5547    403.85766    330.36515   -439.46435    36397.316 
   56300    303.11444   -1473.2118    414.73655     297.7181   -183.25381    36397.316 
   56400    292.56284   -1455.8687    416.73708    269.85182   -583.90533    36397.316 
   56500    298.41174   -1471.6264    409.82962    273.35578   -242.70826    36397.316 
   56600    286.41785   -1460.6107    414.64799    235.52689    362.44172    36397.316 
   56700     303.5968     -1445.86    403.81408    316.30568    62.218278    36397.316 
   56800    301.44424   -1427.3494    407.91598     329.2872    276.32304    36397.316 
   56900    293.25994   -1435.4971    430.91269    307.51803    305.00781    36397.316 
   57000    308.46448   -1467.1536    401.95128    314.92814    719.65654    36397.316 
   57100    303.77774   -1412.3084    446.51115    393.36388     627.6821    36397.316 
   57200    310.10101   -1393.8351    431.46378    425.08129    556.54414    36397.316 
   57300    296.01776    -1386.941    398.14985    335.65025   -286.23805    36397.316 
   57400    292.45286   -1413.4064    418.92717    314.01213   -179.26785    36397.316 
   57500    298.51202    -1448.759    412.88609    299.72837   -275.56113    36397.316 
   57600    306.35117    -1442.239    426.16608    354.60225   -76.759399    36397.316 
   57700     301.1432   -1458.0255    405.51739    294.86555    -645.3975    36397.316 
   57800    303.55389   -1431.1192    423.64151    350.68189     -913.512    36397.316 
   57900    292.93089   -1380.6217    413.42507    343.43357    -14.54212    36397.316 
   58000    301.90545    -1430.128    415.50654    336.16267      -128.08    36397.316 
   58100    290.02404   -1444.1705    401.64464    255.09856   -124.04197    36397.316 
   58200    300.13447   -1390.6428    410.67322    362.89081   -179.63361    36397.316 
   58300     290.6685   -1447.5593     424.6684    277.61694    198.73179    36397.316 
   58400     305.6914   -1387.1244    434.31048    414.90929   -179.39809    36397.316 
   58500    302.61478   -1407.3378    406.69066    353.31069   -445.99049    36397.316 
   58600    295.11061   -1399.7781    398.53884    319.14342   -121.04812    36397.316 
   58700    296.47124   -1453.4784    394.84516    267.83715    117.50717    36397.316 
   58800    304.77202    -1437.866    410.14646    335.89022    32.869448    36397.316 
   58900    304.24766   -1451.5417    409.83923    319.56115     -67.8598    36397.316 
   59000    303.67497   -1429.5494    407.22409    336.37602   -42.327498    36397.316 
   59100    298.98046   -1435.8532    403.93854    305.78247   -463.73696    36397.316 
   59200    313.26041   -1406.9903    404.77628    399.37448   -425.22885    36397.316 
   59300    290.87849   -1430.9157    410.99999    281.53158   -973.33949    36397.316 
   59400    307.39754   -1412.8532    410.50118    373.00476   -629.48042    36397.316 
   59500    302.63074    -1430.232    424.04531     347.8425   -137.05775    36397.316 
   59600    299.55479   -1447.3101    400.72871    293.68541    12.564038    36397.316 
   59700    296.62443   -1443.8971    421.37646    304.63518    13.686019    36397.316 
   59800    289.95634   -1415.0244    417.80204    300.09908    159.65983    36397.316 
   59900    291.49902   -1449.4891    434.73633    289.47091   -202.06543    36397.316 
   60000    296.96765    -1449.373    409.13104    288.44952    -65.82256    36397.316 
   60100    296.81962   -1468.0735    410.49845     270.4541    -359.1592    36397.316 
   60200    290.92718   -1486.1677     422.6213    238.11877   -8.2373498    36397.316 
   60300    296.25529   -1440.5113    429.51544    314.50834   -220.36461    36397.316 
   60400    292.99657   -1401.6986    405.17122    314.39664   -552.98496    36397.316 
   60500     300.4801   -1428.1664    423.50987    339.75027   -64.989101    36397.316 
   60600    290.84381   -1429.3799    424.32921    296.24144   -315.02449    36397.316 
   60700    300.86318   -1442.0717    413.48104     317.5301   -88.465521    36397.316 
   60800    295.48453   -1450.8403    419.98806    291.20343    241.05554    36397.316 
   60900    302.81002   -1460.9022    404.52841    298.45756    18.731246    36397.316 
   61000    298.24715   -1456.7115    403.81889    281.52353    185.21242    36397.316 
   61100    295.74475   -1474.0282    416.71715    265.90888    425.53475    36397.316 
   61200     295.2578   -1474.6928    415.99972    262.34814    99.266353    36397.316 
   61300    301.36474   -1427.1494    422.71747    343.93293    741.94213    36397.316 
   61400     293.4706   -1463.3705    423.44267    273.11714    138.55123    36397.316 
   61500    309.23012   -1448.2146     435.8828    371.22427    449.16711    36397.316 
   61600    302.72562   -1494.4653    400.49739     260.4858   -9.9000511    36397.316 
   61700    310.44375   -1480.4436    430.85675    339.39928    333.81592    36397.316 
   61800    290.63371   -1484.8073    424.82193    240.36682    138.15377    36397.316 
   61900    307.56452   -1488.1379    397.62147    285.58745   -389.90014    36397.316 
   62000    309.87224   -1460.0395    419.51172    345.90135   -220.17257    36397.316 
   62100    297.96572   -1445.9917    418.82408    305.98933   -193.02548    36397.316 
   62200    300.57622   -1438.7473    444.31244    350.40207     283.8786    36397.316 
   62300    299.35446   -1462.7369    435.19109    311.82466    842.12304    36397.316 
   62400    300.15656    -1456.286    450.99944    337.67271    224.94542    36397.316 
   62500    297.61097   -1424.9491    450.32565    356.94632    214.60025    36397.316 
   62600    289.18649   -1441.1585    463.96977    316.68824   -183.75808    36397.316 
   62700    295.02724   -1450.6617    465.29664     334.6446   -89.062076    36397.316 
   62800    294.47119   -1388.8543    460.75507    389.42253   -124.10114    36397.316 
   62900    288.75581     -1410.94    475.06031    356.07036   -290.88282    36397.316 
   63000    297.87893   -1411.9169    449.19351    370.04531   -548.92898    36397.316 
   63100    303.18971   -1432.4873    443.12969    367.17253   -144.23984    36397.316 
   63200    290.73368   -1412.2701    419.62433    308.15359   -100.14413    36397.316 
   63300    291.50697   -1371.7744     448.6918    381.17673   -138.54685    36397.316 
   63400    289.56968   -1415.9273    456.70252    336.36668   -420.90561    36397.316 
   63500    314.04381   -1454.2889    451.26815    402.07278   -314.67523    36397.316 
   63600    301.08904   -1432.7549    424.12928     338.5057   -739.01338    36397.316 
   63700    300.34584   -1469.0164    415.06898    289.85865   -928.73819    36397.316 
   63800    292.89711   -1450.2641    433.59961    293.81457   -677.71703    36397.316 
   63900    298.60087     -1437.41    431.89415    330.48292   -541.82857    36397.316 
   64000    302.79026   -1411.7352     432.7967    375.80447   -218.40671    36397.316 
   64100    301.87497   -1410.2595    422.08832    362.47654   -762.05723    36397.316 
   64200    306.37916   -1421.1616    408.73928    358.37805    -138.8189    36397.316 
   64300    297.02651   -1436.1358    447.91219    340.73118   -548.98887    36397.316 
   64400    299.34676   -1376.3793     426.5885    389.54518   -349.66185    36397.316 
   64500     306.8516   -1397.9838    420.85885    395.78924    154.15238    36397.316 
   64600    306.22101   -1364.4977    442.36837    447.96345    219.87889    36397.316 
   64700    298.41729    -1366.201    423.61707    392.59343    217.58787    36397.316 
   64800    298.69965   -1389.0441    438.84841    386.24501    664.90116    36397.316 
   64900     304.7941   -1454.7893    447.12261    356.04188   -3.2795092    36397.316 
   65000     299.0797    -1406.067    426.66234    358.73645    46.555909    36397.316 
   65100    307.84448   -1411.5989    440.47766    406.23526    201.34607    36397.316 
   65200    296.22093   -1438.3971    417.91699    304.87038    130.98181    36397.316 
   65300     299.1241    -1417.494    429.26428     350.1101    20.229758    36397.316 
   65400     305.2569   -1424.2988    427.88339    369.36373    -123.6865    36397.316 
   65500    306.45879   -1429.0119    442.54053    384.68524   -518.52787    36397.316 
   65600    300.17616   -1418.5025    415.88653    340.43102    -140.0861    36397.316 
   65700    293.80552   -1491.0677    422.16022    245.63594   -211.30555    36397.316 
   65800    301.37769   -1462.7962    424.32829     309.9549   -679.80518    36397.316 
   65900    294.61691   -1457.8557    435.42063    295.73865  -0.89819532    36397.316 
   66000    290.41095   -1435.7115    421.09878    284.74279    327.79535    36397.316 
   66100    302.80188   -1408.5009    419.09136    365.38537    281.91355    36397.316 
   66200      308.433   -1461.0061    410.98343    329.96705    582.92229    36397.316 
   66300    297.26863   -1437.2678     405.4931    298.26336    519.47809    36397.316 
   66400    299.91891   -1375.9298    448.80121    414.76731    495.08178    36397.316 
   66500    303.71063   -1442.5226    410.01691    326.35513    460.30549    36397.316 
   66600    297.79416   -1445.9321    400.32577    286.78306   -68.409081    36397.316 
   66700    303.87263   -1441.8176    429.62636    347.39439   -314.77068    36397.316 
   66800    291.19606   -1450.2942     426.0915    278.66551   -418.93694    36397.316 
   66900     295.4181   -1463.5955    397.17965    255.34254   -448.37273    36397.316 
   67000    301.67532    -1466.885    418.70824    301.57775   -715.80538    36397.316 
   67100    299.55983   -1434.0236    435.25773    341.52347   -476.23676    36397.316 
   67200    294.23132   -1445.2921    440.96556    312.12206   -833.88292    36397.316 
   67300     297.1269   -1494.8068    408.04874    242.64594    -199.0465    36397.316 
   67400     298.3458   -1480.0633    430.17045    284.96467   -399.33002    36397.316 
   67500    297.00875   -1533.0403    394.90131    190.73635   -142.50275    36397.316 
   67600    307.46241   -1477.7315    421.49663    319.41219    24.356535    36397.316 
   67700    308.17294   -1442.2379    444.12506    380.71322    234.98438    36397.316 
   67800    300.82094   -1435.4962    434.99248    345.42814   -470.66545    36397.316 
   67900    297.76986   -1432.9996     409.6492    308.93033   -327.39098    36397.316 
   68000    296.08171   -1456.6014     425.0407    293.16684   -290.11809    36397.316 
   68100    303.96125   -1462.2948    423.65806     321.3454   -217.27209    36397.316 
   68200     302.2635   -1448.0767    457.06518    361.37454   -124.30188    36397.316 
   68300    287.54927   -1444.0492    457.33038    299.83295   -485.08489    36397.316 
   68400    299.26415   -1465.0771    428.29685    302.18619    79.905405    36397.316 
   68500    297.84502   -1465.4643    426.64312     293.7958    454.11819    36397.316 
   68600    301.09969    -1456.786     396.8409    287.23387   -345.61002    36397.316 
   68700    304.20882   -1404.2776    449.01148    405.82369    42.017589    36397.316 
   68800    304.57693    -1387.015    456.68635    432.40818    31.570104    36397.316 
   68900     299.4461   -1394.6574    443.97516    389.09831    54.467209    36397.316 
   69000    291.40114   -1398.8714    426.92009    331.83446   -104.03739    36397.316 
   69100    303.12106   -1372.0202    446.85819    431.06103    36.081637    36397.316 
   69200    293.85554   -1381.8148    441.13264    374.08514   -208.29026    36397.316 
   69300    299.77626   -1441.1379    407.31028    307.43015   -323.19035    36397.316 
   69400    295.16558   -1452.6213    412.60113    280.60841   -77.667408    36397.316 
   69500     301.4184   -1426.9709    403.46835    325.10241    323.22639    36397.316 
   69600    296.31944   -1423.7706    453.41803    355.43863    647.19526    36397.316 
   69700    300.16852   -1448.6127    415.41775    309.81777    200.22903    36397.316 
   69800     304.8438   -1466.6008    431.17668    328.50678    217.08097    36397.316 
   69900    291.52068   -1458.0046    463.26364    309.57963    759.13019    36397.316 
   70000    298.86742   -1441.5484    426.52316    322.16609    788.91325    36397.316 
   70100     297.4503   -1442.2787    424.71883    313.29099    460.55897    36397.316 
   70200    296.69528   -1412.9003    423.41835    337.99086    95.247409    36397.316 
   70300    297.58025   -1379.5369    434.28796    386.18339    47.454783    36397.316 
   70400    310.94188   -1412.6013    438.45614    417.06968   -297.38642    36397.316 
   70500    305.33034   -1406.4203    437.92074    397.60819   -196.83397    36397.316 
   70600    299.99445    -1426.704    426.88239    342.41238    93.452091    36397.316 
   70700    293.24801   -1403.8794     436.5961    344.76573   -162.80325    36397.316 
   70800    289.04043   -1399.3531    436.95337    330.82374   -344.20171    36397.316 
   70900    308.96218   -1413.0385    420.79032    390.10918    362.18312    36397.316 
   71000    291.37198   -1437.0449    417.82242    284.43285    89.653465    36397.316 
   71100    289.80655   -1455.2748    426.53632    267.91282    338.03017    36397.316 
   71200    308.12053      -1421.3    430.69635    387.98796    441.40224    36397.316 
   71300    299.32182   -1442.7274     410.1633    306.66037    629.53694    36397.316 
   71400    292.51887   -1456.7506    414.77787      266.814    5.1208209    36397.316 
   71500    309.11524   -1448.0197    465.52944    400.55188    706.19383    36397.316 
   71600    303.24031   -1465.0661    402.21793     293.9084    69.382206    36397.316 
   71700    302.10686   -1416.4659    440.46696    375.68638    576.44658    36397.316 
   71800    301.36006   -1438.8931    429.78976     339.2406    480.94729    36397.316 
   71900     308.8316   -1391.8338    435.71664     425.6559     333.3456    36397.316 
   72000    299.42716   -1422.6092    427.11708    344.20367    174.45307    36397.316 
   72100    305.71646   -1457.1643    435.89161    346.56266   -183.41491    36397.316 
   72200    296.71827   -1442.7431    420.96795    305.80051     103.5756    36397.316 
   72300    303.35032   -1437.2528    445.08878    365.08469   -242.84288    36397.316 
   72400    303.57296   -1468.5578    432.37735    322.06441   -87.839169    36397.316 
   72500    296.23296   -1452.6764     439.8475    312.57535    72.626616    36397.316 
   72600    292.60342   -1479.8478    412.72925    242.04651   -42.135363    36397.316 
   72700     307.4691   -1494.3068    429.56102    310.93124   -51.137983    36397.316 
   72800    299.91721    -1494.003    432.25054    280.13588    -162.5679    36397.316 
   72900     290.9129   -1472.4085    412.92645    242.11927   -1001.7875    36397.316 
   73000    302.93618   -1426.7799    421.42965    350.04555   -1155.7089    36397.316 
   73100    308.63182   -1430.2209    425.67455    376.33285   -782.94164    36397.316 
   73200    304.34839   -1466.0116    417.77099    313.47366   -134.27021    36397.316 
   73300    304.51539    -1471.228    452.70983    343.94336   -498.10276    36397.316 
   73400    302.85379   -1485.4661    434.37732    303.93836    112.33821    36397.316 
   73500    305.77851   -1470.6231     414.8818     312.3717    304.11223    36397.316 
   73600    297.89471   -1439.1838     441.2625    334.91796    -52.64338    36397.316 
   73700    307.92085   -1459.3611    439.83721    358.17431   -150.85023    36397.316 
   73800    297.07975   -1444.0122    421.43703    306.61788   -391.09854    36397.316 
   73900    304.27074   -1443.9624    437.85853    355.26303     110.4593    36397.316 
   74000    306.18915   -1478.3051    413.16943    304.81458    61.542071    36397.316 
   74100    297.15602   -1492.2425    421.38977    258.68146    -486.7416    36397.316 
   74200    296.74479   -1452.2763    425.87528    301.29333    250.46269    36397.316 
   74300    306.13098    -1450.955    437.08645    355.82136   -556.23985    36397.316 
   74400    294.87781   -1476.0256     435.3247    278.64022    81.015707    36397.316 
   74500    295.34062   -1472.8573    419.86928    268.42379    580.32921    36397.316 
   74600    308.93904   -1515.2725    431.75726     298.7386    164.86106    36397.316 
   74700    305.96979   -1472.4461     426.6886    323.21131    453.72124    36397.316 
   74800    290.89905   -1469.2295    421.14511     253.4549   -317.97791    36397.316 
   74900    299.21904   -1502.7126    425.40948    261.46149    168.52168    36397.316 
   75000    298.58907   -1501.8849    400.37916    234.44021   -474.51124    36397.316 
   75100    301.75443   -1465.9401    407.46291    291.63123   -761.33435    36397.316 
   75200    302.80889    -1497.283    403.30188    260.84515   -488.66785    36397.316 
   75300    291.71465   -1484.0852    417.86893    238.97221   -227.86981    36397.316 
   75400    307.98682   -1505.4198    404.26954    276.84309    246.53723    36397.316 
   75500    307.09014   -1529.2883    399.23669     243.9298   -244.56179    36397.316 
   75600    304.55028   -1540.3033    417.91845    240.23278   -84.046631    36397.316 
   75700     294.6775   -1496.7928    424.84375    246.49577    -423.8663    36397.316 
   75800    292.94201   -1496.6425    423.06066    237.09809     -109.425    36397.316 
   75900    307.42082   -1507.1072    413.57896    281.93271   -260.30822    36397.316 
   76000     290.4078   -1497.4482     416.1507     218.0439   -1093.3424    36397.316 
   76100    298.15548   -1497.4479    440.27764    276.83581   -937.16673    36397.316 
   76200     305.5609   -1475.5814    431.63456    323.19253   -994.56423    36397.316 
   76300    299.52915   -1448.5509    428.41452    320.01572   -1345.5393    36397.316 
   76400    299.08671   -1430.4348    439.22149    346.95922   -707.73646    36397.316 
   76500     304.4564   -1490.8937    430.92014    302.22397   -758.45421    36397.316 
   76600    297.48483    -1493.841     443.8773     281.0417   -879.77001    36397.316 
   76700    308.53976    -1457.212    450.01474    373.27002   -548.76145    36397.316 
   76800    293.31659   -1512.3704    408.39948    208.38501   -842.64949    36397.316 
   76900    297.84537   -1449.6755    421.43714    304.38014   -532.23239    36397.316 
   77000    302.32646   -1455.6706    425.03708    322.03424   -895.50134    36397.316 
   77100    311.88062   -1437.7664    434.95469    392.60325   -514.42847    36397.316 
   77200     298.7906   -1490.6183    426.15092     272.3803   -648.86497    36397.316 
   77300    305.95982   -1466.1234    440.82529    343.62605   -786.03436    36397.316 
   77400    303.52228   -1449.6412    434.81847    343.19537    204.98388    36397.316 
   77500    297.67268   -1459.7281    429.83951    301.95735    40.341434    36397.316 
   77600    304.98866   -1456.7576    424.33221    332.15362    305.30355    36397.316 
   77700    310.13154   -1446.0033    401.40185     342.9878    71.757233    36397.316 
   77800     298.0364   -1440.8546    440.11929    332.73794   -326.72473    36397.316 
   77900    307.12594   -1466.1031    431.53612    339.57462    271.20541    36397.316 
   78000     308.9544   -1483.7114    445.14456    343.75564   -127.16554    36397.316 
   78100    299.98027   -1446.6728    454.72406    350.22178   -114.81309    36397.316 
   78200    294.98854     -1449.05    422.18367    292.97019    261.21644    36397.316 
   78300    299.31535   -1442.2923    417.59337    314.49658   -696.94807    36397.316 
   78400    303.51834   -1478.3755    420.30572    299.93075   -441.03205    36397.316 
   78500    298.91884   -1447.1573    436.22218    326.48626    -333.1974    36397.316 
   78600    294.21921     -1456.16    448.00077    308.23513   -204.03709    36397.316 
   78700    306.68578   -1456.4486     431.0674    346.79103   -499.70782    36397.316 
   78800    295.31026    -1444.074    433.71347     310.9154    109.83211    36397.316 
   78900    299.01406   -1445.7631     456.7913    348.87572    430.59855    36397.316 
   79000    296.59197   -1440.2058    436.30902    323.11385     382.5317    36397.316 
   79100     292.8672      -1447.6    429.57527    292.32054   -25.069456    36397.316 
   79200    296.24047   -1461.2289    433.18801    297.39697    180.35859    36397.316 
   79300    304.12302   -1442.9384    431.78886    349.55641   -139.67775    36397.316 
   79400    309.99814   -1374.3824    466.36643    478.97642   -332.11212    36397.316 
   79500    303.36692   -1429.2299     438.4336    366.52676    27.541866    36397.316 
   79600    302.37049   -1414.9526    446.02572    383.93791    69.369509    36397.316 
   79700    294.79155   -1421.4278    447.42986    344.95726   -59.421416    36397.316 
   79800    295.23543   -1453.6756    415.81993    283.08546   -44.781552    36397.316 
   79900    310.99446   -1494.0313     425.3452    322.76404   -191.19227    36397.316 
   80000    298.61415   -1479.3347    420.99002    277.71351   -440.17514    36397.316 
   80100    300.24872   -1474.8555    442.03793    310.55399   -490.12509    36397.316 
   80200    302.82219   -1445.2125    431.22064    340.89399    766.91708    36397.316 
   80300    306.53111   -1447.8237     428.0449    351.70137    456.03529    36397.316 
   80400     304.4219   -1481.5976    452.81832    333.26392    774.72169    36397.316 
   80500    289.87416   -1493.7013    454.09215    257.34469    551.74558    36397.316 
   80600    305.13774   -1461.9481    426.12014    329.41811    674.15198    36397.316 
   80700    303.37159   -1479.8503    424.28083    301.77448    527.66832    36397.316 
   80800    295.21321    -1454.737    425.67413    291.77883    118.58848    36397.316 
   80900    302.21707   -1500.2445    422.23908    274.17295     102.2866    36397.316 
   81000    297.10963   -1423.4832    414.49959    320.34307    683.10627    36397.316 
   81100     293.0056   -1469.8576    433.25136    274.35824    217.49378    36397.316 
   81200    297.05811    -1485.406    460.76787    304.45805    483.19584    36397.316 
   81300     309.1579   -1468.2807    443.88875    358.84107    417.04923    36397.316 
   81400    295.62115   -1458.8672    444.58903    308.38883    363.27999    36397.316 
   81500    304.71486   -1461.8248    441.56079    343.08992    287.61398    36397.316 
   81600    295.74854   -1443.9596    430.45343    309.73077    50.316964    36397.316 
   81700    289.37884   -1454.3358    440.91837    281.32016    56.921837    36397.316 
   81800    305.26527   -1396.4005    470.82462    440.24069    289.28569    36397.316 
   81900    304.47014   -1420.4443    448.22798    390.04275    532.07701    36397.316 
   82000    291.49783    -1445.242    430.25179    289.22812    413.87749    36397.316 
   82100    307.25201    -1423.971    412.71091    363.44556    25.706557    36397.316 
   82200    292.74029   -1396.8949    464.96286    377.84538    74.397848    36397.316 
   82300    298.31967   -1375.2617    457.54934    417.02831    203.96734    36397.316 
   82400    300.57989   -1414.7114    436.21209    366.35396    270.39611    36397.316 
   82500    299.05977    -1385.723    456.66739    408.99643     156.3285    36397.316 
   82600    307.17173    -1454.298    444.63733    364.68585    247.41873    36397.316 
   82700    293.01922   -1480.9181    450.52293    280.63023   -273.08671    36397.316 
   82800    307.03172   -1478.7624     454.3037    349.26132    1137.8263    36397.316 
   82900    294.24231   -1426.5944    479.88262    369.78596    278.30011    36397.316 
   83000    300.55507   -1420.5462     460.3922    384.58822    483.14596    36397.316 
   83100    308.38058   -1393.2742     424.1115    410.59242    614.69123    36397.316 
   83200    303.62678   -1416.8586    439.01643    380.64355   -62.674005    36397.316 
   83300    308.03503   -1415.4984    443.06308     405.7737    640.37818    36397.316 
   83400    297.40412    -1396.048    430.12121    364.71752   -100.68908    36397.316 
   83500    297.18938   -1421.7485     439.6078    347.54278    240.25496    36397.316 
   83600    296.40874   -1379.5192    433.60123    380.27286    140.31681    36397.316 
   83700    296.98156   -1387.5817    445.90804    387.08006   -35.947051    36397.316 
   83800    297.43224   -1390.1718    438.36092    378.95923   -334.83473    36397.316 
   83900    299.87206   -1420.4119    456.91664    378.19104   -365.31515    36397.316 
   84000    302.80815   -1422.2476    413.90548    346.48086   -312.57545    36397.316 
   84100    298.60815    -1413.952     432.2686     354.3479   -206.42964    36397.316 
   84200    305.75121   -1426.5197     449.7021    391.17321   -78.629344    36397.316 
   84300    308.38084   -1412.6112    449.40462     416.5497   -374.97866    36397.316 
   84400    286.24669   -1422.0895    424.73209    283.36637   -283.54898    36397.316 
   84500    298.98195   -1446.9533    454.26609    345.01666    112.27596    36397.316 
   84600     286.4082   -1465.8775    445.33999    260.90887   -40.991084    36397.316 
   84700    299.30787   -1454.3341    441.73411      326.562    92.252031    36397.316 
   84800    313.73643   -1428.6107    433.40215    408.50969    -523.9285    36397.316 
   84900    293.06003   -1409.6529    437.54459    339.09968    -125.1999    36397.316 
   85000    295.94234    -1433.816    454.94766    345.23561   -112.78722    36397.316 
   85100    300.59515   -1473.4623    443.25361     314.7129      291.077    36397.316 
   85200     295.0018     -1462.57    450.98326    308.30909    407.30523    36397.316 
   85300    303.74194   -1432.8153    440.53842    366.72401    154.89972    36397.316 
   85400    301.27025   -1445.9828    415.32004    317.27941    486.75302    36397.316 
   85500    297.91548    -1424.774    437.26065    345.41887    590.54925    36397.316 
   85600     296.5586   -1420.2742    456.61186    363.19896    383.31201    36397.316 
   85700    291.24153   -1404.6654    447.33264    345.73893   -192.38097    36397.316 
   85800    296.83485   -1394.9606    447.38165    380.51832   -297.85727    36397.316 
   85900    297.59749   -1417.7651    465.02208    378.76646   -239.81806    36397.316 
   86000    295.18431   -1426.3083    429.61716    324.02127   -403.92453    36397.316 
   86100    294.86483   -1418.3918    420.53196    321.42314   -451.58423    36397.316 
   86200    306.96431   -1409.6644    439.54932    403.30341   -581.09506    36397.316 
   86300    294.36404   -1381.5596    449.73997    385.22276   -686.51242    36397.316 
   86400    300.83669   -1417.3536    417.44057    346.08923   -453.00653    36397.316 
   86500     298.2413   -1410.0703    444.12544     368.4452   -558.61426    36397.316 
   86600    295.52139   -1440.0152     425.6928    307.89822   -570.65788    36397.316 
   86700    304.64611   -1421.6365    442.01194    383.42182   -2.0868365    36397.316 
   86800    298.54252   -1423.6089    448.54211     360.6709    579.69364    36397.316 
   86900    293.64368   -1479.7078    416.07273    250.18428    679.45417    36397.316 
   87000     302.0707   -1453.0655    446.29356    344.75151    1007.4977    36397.316 
   87100    313.42706   -1420.6357    466.88536    448.58375    769.32387    36397.316 
   87200    300.57639   -1417.1256    456.40095    384.11304    808.14942    36397.316 
   87300     288.6111   -1376.7656    462.15932    376.69628    1129.1797    36397.316 
   87400    301.55363   -1393.0729    446.54522    402.68233    410.99959    36397.316 
   87500    296.99192   -1414.8955    464.48243    378.38698    232.05819    36397.316 
   87600    300.43485    -1427.451    426.54112    343.29445   -452.51213    36397.316 
   87700    292.68771   -1463.8552    422.59716    268.28414    -454.2033    36397.316 
   87800    304.54235   -1445.1648    441.98712    359.40443   -143.44011    36397.316 
   87900    296.49792   -1444.2769    456.60366    338.91656    159.45592    36397.316 
   88000    300.44243   -1398.9409    431.65682    376.95419   -417.61222    36397.316 
   88100     297.3661     -1416.96    461.32868    374.84286   -216.75919    36397.316 
   88200     292.1126   -1432.0457    428.90159    303.82486     -238.197    36397.316 
   88300    292.42351   -1434.8178    440.59225    314.13447   -314.31334    36397.316 
   88400    292.90211   -1427.3554    428.98128     312.1273    -634.9886    36397.316 
   88500    285.37228   -1433.8313    432.20256    275.18277    -561.1339    36397.316 
   88600    305.95839   -1485.0218    435.79034     319.6863   -721.75126    36397.316 
   88700    303.31762   -1418.3958    440.87234    379.57897   -336.97052    36397.316 
   88800    300.71789   -1471.6064    439.37736    313.24167   -1076.6095    36397.316 
   88900    296.88642   -1447.9161     457.2188    337.63066   -1158.1949    36397.316 
   89000    303.27633   -1452.7491    425.20712    329.37568   -410.15231    36397.316 
   89100    299.76193   -1447.9379    435.63313    328.88886   -224.46575    36397.316 
   89200    301.65885    -1486.252    458.75745    322.18621   -19.915915    36397.316 
   89300    305.32539   -1458.4803     440.5394    348.14469    213.93477    36397.316 
   89400    292.86952   -1451.1818      457.858    317.03181   -620.11372    36397.316 
[...]
  984800     305.9989   -1476.6164    481.28084    373.76349   -962.55642    36397.316 
  984900    297.47101   -1506.2452    461.96833    286.66673   -1292.4911    36397.316 
  985000    308.11883   -1521.5611    459.82112    316.84398   -526.39253    36397.316 
  985100    299.72295     -1589.13    461.18844    213.07765     142.5125    36397.316 
  985200    305.96224   -1544.8854    449.88453    273.93415   -4.5844098    36397.316 
  985300    289.74508   -1563.0354    448.36227    181.70311    326.88224    36397.316 
  985400    299.92764   -1563.8257    462.98351    241.09281    24.080932    36397.316 
  985500    306.44591   -1548.0635    462.07037    285.10591    309.59876    36397.316 
  985600    306.18004   -1553.5525    477.41888    293.77584    75.408145    36397.316 
  985700    299.77451   -1570.6945    457.14506    227.70046   -109.77199    36397.316 
  985800    310.37013   -1566.5659     452.7893    274.88013    89.156729    36397.316 
  985900    293.16368   -1514.0056    462.12141    259.78752    428.53239    36397.316 
  986000    302.59432   -1550.6229      445.783    249.02638   -141.24601    36397.316 
  986100    307.46081    -1529.839    455.76202     301.5629     -330.826    36397.316 
  986200     300.9038   -1520.7922    455.27625    280.78662   -58.919541    36397.316 
  986300    295.21595   -1532.2134    477.85425    266.49485   -104.68634    36397.316 
  986400    291.79566   -1570.3204    449.11188    184.34245    86.268653    36397.316 
  986500    298.35943    -1545.538    459.49679    248.87729    253.28604    36397.316 
  986600    295.19002   -1542.9898    481.63021     259.3784    348.75592    36397.316 
  986700    303.32525   -1534.0648    443.25405    266.32583    654.82482    36397.316 
  986800    293.56739   -1552.5871    452.04678    212.93773     354.4542    36397.316 
  986900    307.83078   -1534.5586    480.84997    323.58663    1043.2512    36397.316 
  987000    291.80573   -1519.8736    447.28189    233.00425     271.9664    36397.316 
  987100    309.93473   -1545.4068    464.60498    305.90686    1105.9511    36397.316 
  987200    303.09722   -1525.3084    476.57297    307.38093   -57.245734    36397.316 
  987300     302.7684   -1483.5507    492.52823    363.62266    101.21371    36397.316 
  987400    305.36253   -1550.3951    471.65217    287.50884    506.23751    36397.316 
  987500    296.91365   -1572.6533    471.47679    227.27334    242.47552    36397.316 
  987600    293.46041    -1529.002    462.58651    246.58386    292.69725    36397.316 
  987700    305.06457    -1561.301    461.88196    265.49958     301.6913    36397.316 
  987800     310.6846   -1523.2406    465.50255    332.32572    110.08043    36397.316 
  987900    304.42188    -1531.999    505.84945    335.89355    261.74689    36397.316 
  988000    300.67381   -1569.9997     448.8498    224.12366   -289.18289    36397.316 
  988100    291.18547   -1520.1016    475.89563    258.61492   -125.29296    36397.316 
  988200    312.45033   -1542.9713     452.2355    307.22825   -183.35847    36397.316 
  988300    296.80823    -1536.154    484.51099    276.33519   -154.86879    36397.316 
  988400    306.34341   -1527.4558    450.63329    293.81793   -221.77266    36397.316 
  988500    299.21127   -1458.4236    474.25582    354.56205   -9.9179043    36397.316 
  988600    295.05238   -1460.5418    478.99024    338.57061     -21.2424    36397.316 
  988700    294.72881   -1506.6842    467.21499    279.20519   -63.023847    36397.316 
  988800    304.52487   -1537.7345    482.11319    306.88257    159.75095    36397.316 
  988900    292.68437   -1518.9194    446.95123    237.55908    52.876599    36397.316 
  989000    294.96916   -1511.7217    459.77357    267.80171    376.59097    36397.316 
  989100    303.48075    -1504.954    499.66824    352.54657    929.68089    36397.316 
  989200    302.28187   -1521.7894    442.17854    272.85741   -151.45482    36397.316 
  989300    297.33303   -1521.8709    467.47659    275.93188    495.23315    36397.316 
  989400    310.18512   -1531.8102     492.2142    348.23301    946.76009    36397.316 
  989500    297.95915    -1476.239    493.77062    350.65916    794.52994    36397.316 
  989600    294.05335   -1530.2194    462.15455    247.58747     779.6732    36397.316 
  989700    305.63543    -1515.815    474.36489     326.0227    1200.2033    36397.316 
  989800    304.55894   -1540.1933    476.08702    298.55005    1213.9971    36397.316 
  989900    310.83321   -1558.6189    489.67393     321.7837    681.02523    36397.316 
  990000    296.27568   -1543.3616     465.8392    248.07302    906.00703    36397.316 
  990100     302.5147   -1551.0534    468.33737    270.79398    434.82089    36397.316 
  990200    299.34944   -1539.8444    472.20789    271.71151    541.46065    36397.316 
  990300    297.29582    -1500.135    476.38069    306.40541   -347.82726    36397.316 
  990400    307.69682   -1487.5814    469.20747    358.32196   -170.32867    36397.316 
  990500    304.62064   -1489.5351    462.42689    335.82419    15.423513    36397.316 
  990600    285.38276   -1570.3274    479.06048    185.59147   -236.81527    36397.316 
  990700    304.88873   -1575.5738    476.78612    265.34427    442.68961    36397.316 
  990800    309.47957   -1569.6742    476.28525    291.28324   -342.43825    36397.316 
  990900    297.61576   -1576.3658    450.51824    205.74368   -211.04447    36397.316 
  991000    295.36286   -1539.0654     453.4021    235.84803   -352.76261    36397.316 
  991100    292.48608   -1535.0726    454.02705    227.59442   -14.178029    36397.316 
  991200    301.48635   -1515.7156    448.55897     281.7524   -42.712241    36397.316 
  991300    296.31971   -1511.1071    451.87568    266.56098   -125.49445    36397.316 
  991400    302.85116   -1516.4429    475.56808    314.14066    -265.9482    36397.316 
  991500    311.64822   -1515.5858    446.35375    325.14319   -192.89246    36397.316 
  991600    292.02506   -1518.0168    475.39308    263.95363     64.05523    36397.316 
  991700    294.62467   -1505.4449     483.2316    295.99514    195.77294    36397.316 
  991800    290.75111   -1539.2857    465.51472    227.10647    144.47649    36397.316 
  991900    297.47579   -1541.1147     484.9476    274.79785    1022.6904    36397.316 
  992000    302.32736   -1542.6749     479.6266    289.62355    767.64542    36397.316 
  992100    298.21122   -1487.4334    472.03656    318.85854    568.51786    36397.316 
  992200    292.58314   -1522.3229    483.52047    270.27179    544.04732    36397.316 
  992300    297.00299   -1552.0165    448.95357    225.78663   -53.307268    36397.316 
  992400     306.3006   -1546.5115    458.23474    282.17213   -169.97404    36397.316 
  992500    286.83167   -1551.3296    466.52849    198.53997   -408.96228    36397.316 
  992600    301.79021   -1554.0938    475.78714    271.96187   -432.06114    36397.316 
  992700     298.5845   -1528.1576     467.5071      275.275   -80.117108    36397.316 
  992800    310.50178    -1524.656     466.4891    331.07892   -710.87678    36397.316 
  992900    308.68056   -1546.8797     471.7901    306.00764   -396.70057    36397.316 
  993000    296.97066   -1520.2147    479.45687    287.94705    -324.8771    36397.316 
  993100    296.84882   -1553.9299    467.37294    241.60278   -296.90807    36397.316 
  993200    297.06732   -1526.0451    492.48365    295.57587   -192.72912    36397.316 
  993300    292.01421   -1504.6378    474.08002    275.97099    271.99886    36397.316 
  993400    292.35982   -1494.1038    458.29772    272.26901   -76.429797    36397.316 
  993500    296.87299   -1501.7427    477.85875    304.38392   -226.75474    36397.316 
  993600    303.57126    -1485.659    495.10787    367.68618    415.68606    36397.316 
  993700    305.29556   -1500.7295    473.61409     338.8368    85.084754    36397.316 
  993800    296.92508   -1527.9839    466.66342    267.18043   -302.87415    36397.316 
  993900    303.44192    -1479.575    488.59424    366.67788   -102.23752    36397.316 
  994000    304.40969   -1511.1781    471.96943    322.77995   -763.04482    36397.316 
  994100    302.12861   -1503.6999    484.95429    333.03701   -1046.2232    36397.316 
  994200    291.91518   -1497.6446    440.22042    248.66153   -872.02165    36397.316 
  994300    300.70269   -1470.8575    487.33343    361.87866   -318.61924    36397.316 
  994400    294.56343   -1515.3649    454.69108     257.2607   -921.46138    36397.316 
  994500    286.98193   -1506.7962    469.80649    247.02362   -498.17408    36397.316 
  994600    298.42161   -1499.0217    483.26755    319.44254    -360.6747    36397.316 
  994700    295.09835   -1492.8686    472.30027    299.75945   -67.260583    36397.316 
  994800    304.62893   -1519.9182      453.019    296.07024   -82.652983    36397.316 
  994900    298.92229   -1515.3797    463.13502    285.19221   -136.38814    36397.316 
  995000    292.57363   -1514.3791    441.92077     236.5734   -587.08966    36397.316 
  995100    309.22217   -1523.4325    463.25605    323.34415   -980.43794    36397.316 
  995200    297.93233    -1489.056    464.23945    308.19102   -24.378704    36397.316 
  995300    299.25367   -1518.2694     456.5245    277.17468    5.9460989    36397.316 
  995400    296.99482   -1526.8707    490.76442    292.70679   -724.95534    36397.316 
  995500    295.95614   -1518.3342    444.97267     250.8042   -161.30671    36397.316 
  995600    303.49928   -1515.2259    470.04147    312.73072    654.81679    36397.316 
  995700    305.48537   -1535.6065    489.66644    320.86135    597.52827    36397.316 
  995800    291.99187   -1511.3925     473.1695    268.20586   -163.36525    36397.316 
  995900     304.1051   -1534.5735    472.52613    298.57841   -1125.9478    36397.316 
  996000    290.70783   -1506.8557    472.23656    266.06467   -710.02781    36397.316 
  996100     298.6088   -1529.2579    450.58363    257.36004   -162.50071    36397.316 
  996200     294.3227   -1516.4611    479.88236    280.27868   -435.65984    36397.316 
  996300    301.29605   -1496.4953    497.20232    348.76452    18.481493    36397.316 
  996400    286.17007   -1441.3335    455.33843    294.38588    37.441797    36397.316 
  996500     299.4116    -1463.331    480.88488    357.17999   -54.170925    36397.316 
  996600    304.31458   -1508.1452    475.56122    328.97899   -425.35679    36397.316 
  996700    307.76032   -1484.2119    475.71177    368.47988   -208.49768    36397.316 
  996800    291.63273   -1520.8588    474.58778    258.55089   -28.038349    36397.316 
  996900    299.09795   -1500.7227    446.34917    283.84925    -237.1607    36397.316 
  997000    294.64544    -1533.559    478.14537    262.88782   -799.07628    36397.316 
  997100    289.27935   -1477.2549    475.66245    292.70002   -146.93679    36397.316 
  997200    298.51416   -1521.1624    454.52223    268.97066   -808.22442    36397.316 
  997300    312.71778   -1499.2767    465.67311    365.55705   -645.96974    36397.316 
  997400    303.81274   -1483.8126    477.35252    352.85759    -902.9438    36397.316 
  997500     290.9937   -1507.0948    448.77114    243.63911   -482.88828    36397.316 
  997600    302.77576   -1536.7808    495.63085    313.52816    288.28258    36397.316 
  997700    313.11448   -1523.0409    480.80463    358.69924    27.649375    36397.316 
  997800    306.02741   -1542.2253    503.54345    330.54476    152.40221    36397.316 
  997900    297.89977   -1599.6997     463.1587    196.32089    227.97187    36397.316 
  998000    290.77187   -1599.0637    471.03269    172.93932    985.50221    36397.316 
  998100    309.34738   -1600.4789    458.29176    241.89368    1070.7569    36397.316 
  998200    306.73556   -1550.6725    484.90187    306.62437     361.2096    36397.316 
  998300     298.6616   -1593.4792    476.98817     219.7795    607.70029    36397.316 
  998400    295.99565   -1591.8725    504.95412    237.42413    366.17908    36397.316 
  998500     304.6871   -1608.2929    442.78287    197.71978    80.761653    36397.316 
  998600    296.22362   -1560.5722    468.41749    233.20775    41.522482    36397.316 
  998700    286.38701   -1507.7736    478.39856    251.97653   -585.96828    36397.316 
  998800    298.67449   -1507.7909    483.70564    312.24291   -223.49202    36397.316 
  998900    293.03571   -1512.0115    484.68922    283.77692   -235.76436    36397.316 
  999000    300.97874   -1515.3566    474.92709     306.2083   -24.839615    36397.316 
  999100    300.55378   -1573.9327    463.68374    234.48749   -175.54671    36397.316 
  999200    305.71015   -1497.1611    509.17467    379.82067    374.96064    36397.316 
  999300    294.37303   -1572.8237    471.53739     215.7963    496.67484    36397.316 
  999400    301.90006   -1529.4556    510.90688    332.21127    489.78917    36397.316 
  999500    300.56569   -1499.8878    472.78502    317.68698    967.20605    36397.316 
  999600    288.05348   -1537.9639     496.7719    247.61572    529.40622    36397.316 
  999700    306.10591    -1520.628    474.13613    323.08593    560.60857    36397.316 
  999800    293.04469    -1521.222      469.349    259.26631    2.5918703    36397.316 
  999900    293.88135   -1556.2253    481.67534    240.33272    353.03114    36397.316 
 1000000    292.22342   -1542.2029     491.8294    257.09137    68.746972    36397.316 
 1000100      291.198   -1522.0226    489.50152    270.35576   -250.66307    36397.316 
 1000200    295.66163     -1541.62    461.37128     242.5993    474.93339    36397.316 
 1000300    295.20402   -1542.7969    502.60382    280.60752    340.51642    36397.316 
 1000400    295.69489   -1528.1859    468.29318    263.10411    42.217544    36397.316 
 1000500    294.74135   -1517.6177    491.34943    292.46232    111.39253    36397.316 
 1000600    299.85281   -1523.9004     490.7328    308.43258   -176.95201    36397.316 
 1000700    301.01807   -1561.6694    464.07656      249.221   -99.285581    36397.316 
 1000800    304.22815   -1508.5876    493.79735     346.3861   -536.48143    36397.316 
 1000900    319.16225     -1541.72    471.99499    358.26939   -399.62127    36397.316 
 1001000    295.54663   -1542.0911    484.99565    265.23804   -309.08603    36397.316 
 1001100    302.12823   -1527.3914    476.28432     300.6738   -236.71418    36397.316 
 1001200    301.87059   -1491.2366    471.32273     330.7143   -183.27759    36397.316 
 1001300    297.15249   -1508.9661    474.54501    295.09733   -501.06529    36397.316 
 1001400    295.50625   -1500.7059    479.41743    300.86442    93.265883    36397.316 
 1001500    300.66258   -1497.2215    480.09126    328.09306     389.6794    36397.316 
 1001600    322.32899   -1550.9402    478.37912    369.60198    7.8301937    36397.316 
 1001700     309.3105   -1565.5242    469.64725    288.03882    102.19453    36397.316 
 1001800    304.07111   -1534.3985    467.86283    293.93808    296.69864    36397.316 
 1001900    294.62132   -1530.3994    482.87183    270.66592   -352.51145    36397.316 
 1002000    287.23174   -1526.7221    470.61378    229.02273   -445.32486    36397.316 
 1002100    294.55951   -1546.7936     449.1985    220.32189   -682.99395    36397.316 
 1002200    301.34674   -1534.3841     478.5907    292.49091   -495.29429    36397.316 
 1002300    302.07424   -1492.8097    483.20778     341.9374   -369.95958    36397.316 
 1002400    299.55762   -1536.6928     480.6907    284.27738   -60.655474    36397.316 
 1002500    294.64307   -1510.2337    471.46535    279.52241    462.87141    36397.316 
 1002600    296.68793   -1543.1245    470.56889    254.88431     797.5874    36397.316 
 1002700      300.094   -1497.6219    482.65831    327.71579    270.26556    36397.316 
 1002800    287.50072   -1498.9446    464.85351    252.24339    153.39082    36397.316 
 1002900    297.35534   -1517.5569    452.85938    265.72851    110.86694    36397.316 
 1003000    302.69193   -1538.2265    477.21585    293.29233    348.80957    36397.316 
 1003100    291.23976   -1537.4075    445.20614    210.86232   -264.04237    36397.316 
 1003200    309.04789   -1527.0961    487.70263    343.34737   -265.92092    36397.316 
 1003300    298.25816    -1519.462     476.0965    291.09991   -499.28552    36397.316 
 1003400    295.28457   -1545.7876    444.38578     219.7592    90.299055    36397.316 
 1003500    291.53759      -1501.3    489.49242    292.58868   -314.56065    36397.316 
 1003600    295.84139   -1522.8557    494.19493    294.99157   -254.48284    36397.316 
 1003700     298.8336   -1532.2461    445.44876    250.24277   -148.44678    36397.316 
 1003800    309.70204   -1500.1677    481.06407    366.56394   -354.30954    36397.316 
 1003900    290.99673   -1552.4575    464.49477    214.01363   -968.18265    36397.316 
 1004000    300.96328   -1569.5481    479.68326    256.70382   -423.49411    36397.316 
 1004100    305.33289   -1557.4295    480.84449    289.53418   -16.282906    36397.316 
 1004200    292.55805   -1566.0954     468.9717    211.83833    489.97334    36397.316 
 1004300    302.41719   -1523.5598    457.10563    286.61956   -39.678848    36397.316 
 1004400    307.51348   -1521.0892    471.96143    326.74783    -279.3395    36397.316 
 1004500    298.40471   -1482.2323    476.91701     329.8058   -750.43971    36397.316 
 1004600    297.37479   -1528.7314     439.1249    240.90653   -669.97043    36397.316 
 1004700    316.80125   -1517.2564    510.72883    410.90326   -252.12007    36397.316 
 1004800    300.28829   -1516.4427    469.60805      296.714    385.64599    36397.316 
 1004900    300.62589   -1507.0539    480.11189    318.11709   -94.767229    36397.316 
 1005000    296.66618   -1527.9769    488.64938    288.01509   -279.45639    36397.316 
 1005100    295.26648   -1501.5751    466.71636    286.22134   -146.22818    36397.316 
 1005200    299.26963   -1464.1035    476.41682    351.30424   -38.154167    36397.316 
 1005300    308.35472   -1457.7881      505.025    426.87631    699.12172    36397.316 
 1005400      294.449   -1484.6906    456.87738    289.60925    201.16551    36397.316 
 1005404    293.83004   -1494.5148    503.01266    323.15104   -556.06508    36397.316 
Loop time of 598.458 on 32 procs for 1000000 steps with 1502 atoms

Performance: 144.371 ns/day, 0.166 hours/ns, 1670.961 timesteps/s
100.0% CPU use with 32 MPI tasks x no OpenMP threads

MPI task timing breakdown:
Section |  min time  |  avg time  |  max time  |%varavg| %total
---------------------------------------------------------------
Pair    | 255.59     | 281.16     | 320.09     |  93.3 | 46.98
Bond    | 1.3679     | 1.4677     | 1.6345     |   5.5 |  0.25
Neigh   | 38.491     | 38.552     | 38.611     |   0.7 |  6.44
Comm    | 226.87     | 266.29     | 291.75     |  96.1 | 44.50
Output  | 0.39066    | 0.40745    | 0.85755    |  12.7 |  0.07
Modify  | 7.5068     | 7.7976     | 8.0114     |   4.8 |  1.30
Other   |            | 2.779      |            |       |  0.46

Nlocal:        46.9375 ave          72 max          25 min
Histogram: 1 5 2 3 6 5 5 3 0 2
Nghost:        2016.28 ave        2071 max        1956 min
Histogram: 2 0 3 4 5 5 7 3 2 1
Neighs:        5246.19 ave        9281 max        2497 min
Histogram: 4 4 4 3 5 5 4 2 0 1

Total # of neighbors = 167878
Ave neighs/atom = 111.76964
Ave special neighs/atom = 1.9986684
Neighbor list builds = 49667
Dangerous builds = 0

# Output the system volume
variable v equal vol
print 'The system volume is $v'
The system volume is 36397.3164107168

# Outputs
variable A equal xhi-xlo
variable B equal yhi-ylo
variable C equal zhi-zlo
variable D equal xy
variable E equal xz
variable F equal yz
print 'Lattice vectors'
Lattice vectors
print '$A 0 0'
33.1403014641473 0 0
print '$D $B 0'
0 33.1403014641473 0
print '$E $F $C'
0 0 33.1403014641473
Total wall time: 0:10:02
