LAMMPS data file
 1512 atoms
 1012 bonds
 518 angles
 24 dihedrals
 6 impropers
 4 atom types
 3 bond types
 2 angle types
 1 dihedral types
 1 improper types
 0 15 xlo xhi
 0 15 ylo yhi
 0 15 zlo zhi
 0 0 0 xy xz yz

# Atom types
#
# 1 C_R
# 2 H_
# 3 H__HB
# 4 O_3

# Bond Coeffs
#
# 1 C_R*C_R
# 2 C_R*H_
# 3 O_3*H__HB

# Angle Coeffs
#
# 1 C_R
# 2 O_3

# Dihedral Coeffs
#
# 1 D1

# Inversion Coeffs
#
# 1 1

 Masses

 1 12.01
 2 1.01
 3 1.01
 4 16

 Atoms # full

1 1 1 0 7.99001035143923 3.70634545240027 14.1472459076116
2 1 1 0 7.58226083216257 4.74989065980531 15.0079660070816
3 1 1 0 8.16304197867247 3.97053212709133 12.7704416525003
4 1 1 0 7.35245330877979 6.04128001044903 14.4786462953377
5 1 1 0 7.93248855162912 5.25730804352397 12.255135143549
6 1 1 0 7.52128861444527 6.31157950218 13.1007816850327
7 1 2 0 8.1998815444656 2.47601559009577 14.6996283948969
8 1 2 0 7.42823136516407 4.45003753413862 16.3305698730687
9 1 2 0 8.4585041377401 3.22999239250481 12.1318649350593
10 1 2 0 7.05552448201517 6.79323936650362 15.1032283305245
11 1 2 0 8.06999113212687 5.4207443306447 11.2544243159826
12 1 2 0 7.27863974067609 7.67239156697863 12.5435796046731
13 2 3 0 5.41574885996059 5.55537352961488 6.11581013537943
14 2 4 0 6.37574885996059 5.55537352961488 6.11581013537943
15 2 3 0 6.61574885996059 4.62537352961488 6.11581013537943
16 3 3 0 12.1710332266241 12.8111671928223 2.82979755895212
17 3 4 0 13.1310332266241 12.8111671928223 2.82979755895212
18 3 3 0 13.3710332266241 11.8811671928223 2.82979755895212
19 4 3 0 6.3609778268449 4.74551783449948 7.51602526637726
20 4 4 0 7.3209778268449 4.74551783449948 7.51602526637726
21 4 3 0 7.5609778268449 3.81551783449948 7.51602526637726
22 5 3 0 12.8868302218337 4.3991077008564 8.97083108313382
23 5 4 0 13.8468302218337 4.3991077008564 8.97083108313382
24 5 3 0 14.0868302218337 3.4691077008564 8.97083108313382
25 6 3 0 12.1986266788747 5.42766367126256 2.88318227045238
26 6 4 0 13.1586266788747 5.42766367126256 2.88318227045238
27 6 3 0 13.3986266788747 4.49766367126256 2.88318227045238
28 7 3 0 4.80255673916079 13.8848444567434 1.07200507074594
29 7 4 0 5.76255673916079 13.8848444567434 1.07200507074594
30 7 3 0 6.00255673916079 12.9548444567434 1.07200507074594
31 8 3 0 13.026442256961 8.58872758382 3.80941565148532
32 8 4 0 13.986442256961 8.58872758382 3.80941565148532
33 8 3 0 14.226442256961 7.65872758382 3.80941565148532
34 9 3 0 4.94822400083765 7.9693228278216 1.41139968414791
35 9 4 0 5.90822400083765 7.9693228278216 1.41139968414791
36 9 3 0 6.14822400083765 7.0393228278216 1.41139968414791
37 10 3 0 5.80395632816479 15.1075525667425 14.5525643206201
38 10 4 0 6.76395632816479 15.1075525667425 14.5525643206201
39 10 3 0 7.00395632816479 14.1775525667425 14.5525643206201
40 11 3 0 9.34801708485 10.00990108395 12.5527215620968
41 11 4 0 10.30801708485 10.00990108395 12.5527215620968
42 11 3 0 10.54801708485 9.07990108394995 12.5527215620968
43 12 3 0 -0.150242698872462 14.9652937710658 13.1980536191259
44 12 4 0 0.809757301127538 14.9652937710658 13.1980536191259
45 12 3 0 1.04975730112754 14.0352937710658 13.1980536191259
46 13 3 0 4.4937794229202 10.0845301446412 2.29929166962393
47 13 4 0 5.4537794229202 10.0845301446412 2.29929166962393
48 13 3 0 5.6937794229202 9.15453014464118 2.29929166962393
49 14 3 0 3.96286952585913 3.98316565010697 6.23155582230538
50 14 4 0 4.92286952585913 3.98316565010697 6.23155582230538
51 14 3 0 5.16286952585913 3.05316565010697 6.23155582230538
52 15 3 0 7.77779728450812 13.21878643631 0.922021334990859
53 15 4 0 8.73779728450812 13.21878643631 0.922021334990859
54 15 3 0 8.97779728450812 12.28878643631 0.922021334990859
55 16 3 0 7.16449157145806 9.69889568671584 5.16582316718996
56 16 4 0 8.12449157145806 9.69889568671584 5.16582316718996
57 16 3 0 8.36449157145806 8.76889568671584 5.16582316718996
58 17 3 0 1.71178355041891 2.66544995986857 1.423831457505
59 17 4 0 2.67178355041891 2.66544995986857 1.423831457505
60 17 3 0 2.91178355041891 1.73544995986857 1.423831457505
61 18 3 0 0.801286511560902 3.33562383003533 9.65065837022848
62 18 4 0 1.7612865115609 3.33562383003533 9.65065837022848
63 18 3 0 2.0012865115609 2.40562383003533 9.65065837022848
64 19 3 0 0.0139715666603297 4.19151227380149 13.0222951993346
65 19 4 0 0.97397156666033 4.19151227380149 13.0222951993346
66 19 3 0 1.21397156666033 3.26151227380149 13.0222951993346
67 20 3 0 6.576806772938 12.3331453550514 1.36622640537098
68 20 4 0 7.536806772938 12.3331453550514 1.36622640537098
69 20 3 0 7.776806772938 11.4031453550514 1.36622640537098
70 21 3 0 3.47348439434543 9.75078055792488 5.17461615381762
71 21 4 0 4.43348439434543 9.75078055792488 5.17461615381762
72 21 3 0 4.67348439434543 8.82078055792488 5.17461615381762
73 22 3 0 -0.0196107274666428 3.7496946313791 12.263317873003
74 22 4 0 0.940389272533357 3.7496946313791 12.263317873003
75 22 3 0 1.18038927253336 2.8196946313791 12.263317873003
76 23 3 0 5.07879019525833 1.32524005644023 8.39877623599023
77 23 4 0 6.03879019525833 1.32524005644023 8.39877623599023
78 23 3 0 6.27879019525833 0.395240056440234 8.39877623599023
79 24 3 0 2.17917433052324 3.60294160241261 2.69047384033911
80 24 4 0 3.13917433052324 3.60294160241261 2.69047384033911
81 24 3 0 3.37917433052324 2.67294160241261 2.69047384033911
82 25 3 0 13.1038132162951 10.1731061858032 1.87845360604115
83 25 4 0 14.0638132162951 10.1731061858032 1.87845360604115
84 25 3 0 14.3038132162951 9.24310618580319 1.87845360604115
85 26 3 0 1.34182922353037 12.8007282413915 6.0029394866433
86 26 4 0 2.30182922353037 12.8007282413915 6.0029394866433
87 26 3 0 2.54182922353037 11.8707282413915 6.0029394866433
88 27 3 0 1.41261298486032 5.49204653635621 13.9682375499979
89 27 4 0 2.37261298486032 5.49204653635621 13.9682375499979
90 27 3 0 2.61261298486032 4.56204653635621 13.9682375499979
91 28 3 0 9.33009508109651 5.27855231351219 2.56571325240657
92 28 4 0 10.2900950810965 5.27855231351219 2.56571325240657
93 28 3 0 10.5300950810965 4.34855231351219 2.56571325240657
94 29 3 0 0.137966195326299 6.04529374436475 3.47614898812026
95 29 4 0 1.0979661953263 6.04529374436475 3.47614898812026
96 29 3 0 1.3379661953263 5.11529374436475 3.47614898812026
97 30 3 0 7.41585945172235 5.59878801618703 1.07246042811312
98 30 4 0 8.37585945172235 5.59878801618703 1.07246042811312
99 30 3 0 8.61585945172235 4.66878801618703 1.07246042811312
100 31 3 0 10.5073133837152 7.39531122538261 2.75289358338341
101 31 4 0 11.4673133837152 7.39531122538261 2.75289358338341
102 31 3 0 11.7073133837152 6.46531122538261 2.75289358338341
103 32 3 0 8.1371223593317 5.06512458011508 3.82978205219842
104 32 4 0 9.0971223593317 5.06512458011508 3.82978205219842
105 32 3 0 9.3371223593317 4.13512458011508 3.82978205219842
106 33 3 0 6.89900137527846 7.59948106640018 1.00644241785631
107 33 4 0 7.85900137527846 7.59948106640018 1.00644241785631
108 33 3 0 8.09900137527846 6.66948106640019 1.00644241785631
109 34 3 0 2.56629620256834 9.37417110119946 4.38808452221565
110 34 4 0 3.52629620256834 9.37417110119946 4.38808452221565
111 34 3 0 3.76629620256834 8.44417110119946 4.38808452221565
112 35 3 0 4.57735835501924 4.66282533057034 13.7736930011306
113 35 4 0 5.53735835501924 4.66282533057034 13.7736930011306
114 35 3 0 5.77735835501924 3.73282533057034 13.7736930011306
115 36 3 0 0.760564589146525 14.4810941144265 1.52024046750739
116 36 4 0 1.72056458914652 14.4810941144265 1.52024046750739
117 36 3 0 1.96056458914652 13.5510941144265 1.52024046750739
118 37 3 0 14.1228070382215 13.7295714257658 9.40220970427617
119 37 4 0 15.0828070382215 13.7295714257658 9.40220970427617
120 37 3 0 15.3228070382215 12.7995714257658 9.40220970427617
121 38 3 0 5.49637391857803 13.8723735329136 1.42004087450914
122 38 4 0 6.45637391857803 13.8723735329136 1.42004087450914
123 38 3 0 6.69637391857803 12.9423735329136 1.42004087450914
124 39 3 0 9.36118505124003 2.83936401520856 9.66372458380647
125 39 4 0 10.32118505124 2.83936401520856 9.66372458380647
126 39 3 0 10.56118505124 1.90936401520856 9.66372458380647
127 40 3 0 10.8179988087807 8.30084492377006 13.8808563945349
128 40 4 0 11.7779988087807 8.30084492377006 13.8808563945349
129 40 3 0 12.0179988087807 7.37084492377006 13.8808563945349
130 41 3 0 3.56114334703423 8.39372858213261 14.3262313655578
131 41 4 0 4.52114334703423 8.39372858213261 14.3262313655578
132 41 3 0 4.76114334703423 7.46372858213261 14.3262313655578
133 42 3 0 5.02922411469743 13.5820893318765 12.717249848647
134 42 4 0 5.98922411469743 13.5820893318765 12.717249848647
135 42 3 0 6.22922411469743 12.6520893318765 12.717249848647
136 43 3 0 11.1559088404477 14.503490552716 12.4188949295785
137 43 4 0 12.1159088404477 14.503490552716 12.4188949295785
138 43 3 0 12.3559088404477 13.573490552716 12.4188949295785
139 44 3 0 0.453948218347505 7.57868953206576 7.43955197744071
140 44 4 0 1.4139482183475 7.57868953206576 7.43955197744071
141 44 3 0 1.6539482183475 6.64868953206576 7.43955197744071
142 45 3 0 5.17153351960704 10.2317125889845 6.32374194217846
143 45 4 0 6.13153351960704 10.2317125889845 6.32374194217846
144 45 3 0 6.37153351960704 9.30171258898452 6.32374194217846
145 46 3 0 4.24604241197929 11.6433692622837 6.19854296674021
146 46 4 0 5.20604241197929 11.6433692622837 6.19854296674021
147 46 3 0 5.44604241197929 10.7133692622837 6.19854296674021
148 47 3 0 12.858201814089 5.80919504788704 4.35762949520722
149 47 4 0 13.818201814089 5.80919504788704 4.35762949520722
150 47 3 0 14.058201814089 4.87919504788704 4.35762949520722
151 48 3 0 2.26295751912519 1.49069182266481 11.3878244545776
152 48 4 0 3.22295751912519 1.49069182266481 11.3878244545776
153 48 3 0 3.46295751912519 0.560691822664812 11.3878244545776
154 49 3 0 7.11685176749714 11.6467646175902 0.951676616678014
155 49 4 0 8.07685176749714 11.6467646175902 0.951676616678014
156 49 3 0 8.31685176749714 10.7167646175902 0.951676616678014
157 50 3 0 5.54122905872762 13.8830628413148 8.10466467635706
158 50 4 0 6.50122905872762 13.8830628413148 8.10466467635706
159 50 3 0 6.74122905872762 12.9530628413148 8.10466467635706
160 51 3 0 1.24239700075239 6.46334028145298 8.73730416758917
161 51 4 0 2.20239700075239 6.46334028145298 8.73730416758917
162 51 3 0 2.44239700075239 5.53334028145298 8.73730416758917
163 52 3 0 6.37481775294989 14.9832124953996 10.1569901802577
164 52 4 0 7.33481775294989 14.9832124953996 10.1569901802577
165 52 3 0 7.57481775294989 14.0532124953996 10.1569901802577
166 53 3 0 2.41193837413564 0.731967074507847 11.0325736342929
167 53 4 0 3.37193837413564 0.731967074507847 11.0325736342929
168 53 3 0 3.61193837413564 -0.198032925492153 11.0325736342929
169 54 3 0 3.20334628966637 2.10003122611903 12.1073960443027
170 54 4 0 4.16334628966637 2.10003122611903 12.1073960443027
171 54 3 0 4.40334628966637 1.17003122611903 12.1073960443027
172 55 3 0 7.00692468948662 12.601218591854 10.6298541335855
173 55 4 0 7.96692468948662 12.601218591854 10.6298541335855
174 55 3 0 8.20692468948662 11.671218591854 10.6298541335855
175 56 3 0 7.61040847443044 6.71973231988028 9.40687779569998
176 56 4 0 8.57040847443044 6.71973231988028 9.40687779569998
177 56 3 0 8.81040847443044 5.78973231988028 9.40687779569998
178 57 3 0 0.940718290368095 6.98491863714531 11.0246067889966
179 57 4 0 1.9007182903681 6.98491863714531 11.0246067889966
180 57 3 0 2.1407182903681 6.05491863714531 11.0246067889966
181 58 3 0 1.67453550428152 13.2352241761424 9.68142006313428
182 58 4 0 2.63453550428152 13.2352241761424 9.68142006313428
183 58 3 0 2.87453550428152 12.3052241761424 9.68142006313428
184 59 3 0 2.29583049120381 1.55277687282301 7.76132500497624
185 59 4 0 3.25583049120381 1.55277687282301 7.76132500497624
186 59 3 0 3.49583049120382 0.622776872823015 7.76132500497624
187 60 3 0 9.57993666918017 7.38361507578753 7.05149255110882
188 60 4 0 10.5399366691802 7.38361507578753 7.05149255110882
189 60 3 0 10.7799366691802 6.45361507578753 7.05149255110882
190 61 3 0 5.75306091268547 12.6520145420823 4.72032410558313
191 61 4 0 6.71306091268547 12.6520145420823 4.72032410558313
192 61 3 0 6.95306091268547 11.7220145420823 4.72032410558313
193 62 3 0 12.8528345182724 4.43234986084513 7.61278653284535
194 62 4 0 13.8128345182724 4.43234986084513 7.61278653284535
195 62 3 0 14.0528345182724 3.50234986084513 7.61278653284535
196 63 3 0 5.45322276346386 6.83622891007923 7.18266293057241
197 63 4 0 6.41322276346386 6.83622891007923 7.18266293057241
198 63 3 0 6.65322276346386 5.90622891007923 7.18266293057241
199 64 3 0 6.74898012701422 7.94175831758417 6.96794997551478
200 64 4 0 7.70898012701422 7.94175831758417 6.96794997551478
201 64 3 0 7.94898012701422 7.01175831758417 6.96794997551478
202 65 3 0 1.99930952905677 14.0094314868934 14.6136741852388
203 65 4 0 2.95930952905677 14.0094314868934 14.6136741852388
204 65 3 0 3.19930952905677 13.0794314868934 14.6136741852388
205 66 3 0 -0.375120751122013 2.00855955173261 6.90159875317477
206 66 4 0 0.584879248877987 2.00855955173261 6.90159875317477
207 66 3 0 0.824879248877987 1.07855955173261 6.90159875317477
208 67 3 0 0.4472719696071 11.2295282857399 10.3070876968559
209 67 4 0 1.4072719696071 11.2295282857399 10.3070876968559
210 67 3 0 1.6472719696071 10.2995282857399 10.3070876968559
211 68 3 0 2.83951817007735 6.96854102699086 7.83216316136532
212 68 4 0 3.79951817007735 6.96854102699086 7.83216316136532
213 68 3 0 4.03951817007735 6.03854102699086 7.83216316136532
214 69 3 0 10.38468576313 10.3052449440025 1.47781633771956
215 69 4 0 11.34468576313 10.3052449440025 1.47781633771956
216 69 3 0 11.58468576313 9.37524494400248 1.47781633771956
217 70 3 0 1.48718427328393 10.9841989066359 3.18191566388123
218 70 4 0 2.44718427328393 10.9841989066359 3.18191566388123
219 70 3 0 2.68718427328393 10.0541989066359 3.18191566388123
220 71 3 0 6.59982031138614 7.43907666573301 2.53141568158753
221 71 4 0 7.55982031138614 7.43907666573301 2.53141568158753
222 71 3 0 7.79982031138614 6.50907666573301 2.53141568158753
223 72 3 0 4.36964167675003 0.647872903328389 0.648102059494704
224 72 4 0 5.32964167675003 0.647872903328389 0.648102059494704
225 72 3 0 5.56964167675003 -0.282127096671611 0.648102059494704
226 73 3 0 5.26617036128417 1.97748464806005 1.14728318760172
227 73 4 0 6.22617036128417 1.97748464806005 1.14728318760172
228 73 3 0 6.46617036128417 1.04748464806005 1.14728318760172
229 74 3 0 12.620303809382 4.97201957315206 10.5604151508305
230 74 4 0 13.580303809382 4.97201957315206 10.5604151508305
231 74 3 0 13.820303809382 4.04201957315207 10.5604151508305
232 75 3 0 10.9242459833343 13.6071695088781 2.09760763216764
233 75 4 0 11.8842459833343 13.6071695088781 2.09760763216764
234 75 3 0 12.1242459833343 12.6771695088781 2.09760763216764
235 76 3 0 0.794093305449933 1.96963160456158 5.21566657698713
236 76 4 0 1.75409330544993 1.96963160456158 5.21566657698713
237 76 3 0 1.99409330544993 1.03963160456158 5.21566657698713
238 77 3 0 2.66752652518451 2.87437426432967 4.88460216787644
239 77 4 0 3.62752652518451 2.87437426432967 4.88460216787644
240 77 3 0 3.86752652518451 1.94437426432967 4.88460216787644
241 78 3 0 3.39422924953513 9.80790386715904 1.07823818223551
242 78 4 0 4.35422924953513 9.80790386715904 1.07823818223551
243 78 3 0 4.59422924953513 8.87790386715904 1.07823818223551
244 79 3 0 14.1360582648497 1.66227217106149 6.28647156176157
245 79 4 0 15.0960582648497 1.66227217106149 6.28647156176157
246 79 3 0 15.3360582648497 0.732272171061486 6.28647156176157
247 80 3 0 1.37723197272979 10.6007310903538 0.348514937795699
248 80 4 0 2.33723197272979 10.6007310903538 0.348514937795699
249 80 3 0 2.57723197272979 9.6707310903538 0.348514937795699
250 81 3 0 10.7759712268319 11.6767625200469 11.626843350241
251 81 4 0 11.7359712268319 11.6767625200469 11.626843350241
252 81 3 0 11.9759712268319 10.7467625200469 11.626843350241
253 82 3 0 1.78688555301167 1.54488308978267 11.0567946836818
254 82 4 0 2.74688555301167 1.54488308978267 11.0567946836818
255 82 3 0 2.98688555301167 0.61488308978267 11.0567946836818
256 83 3 0 2.31061289247125 6.52240657521412 2.32716072234325
257 83 4 0 3.27061289247125 6.52240657521412 2.32716072234325
258 83 3 0 3.51061289247125 5.59240657521412 2.32716072234325
259 84 3 0 3.85381792017259 13.571137198424 11.9732873642351
260 84 4 0 4.81381792017259 13.571137198424 11.9732873642351
261 84 3 0 5.05381792017259 12.641137198424 11.9732873642351
262 85 3 0 10.4524714748561 15.1700992572028 13.4035476821009
263 85 4 0 11.4124714748561 15.1700992572028 13.4035476821009
264 85 3 0 11.6524714748561 14.2400992572028 13.4035476821009
265 86 3 0 12.5197381681949 15.1894801381882 8.1363001477439
266 86 4 0 13.4797381681949 15.1894801381882 8.1363001477439
267 86 3 0 13.7197381681949 14.2594801381882 8.1363001477439
268 87 3 0 13.3837636133842 12.3668505453411 6.64418684667908
269 87 4 0 14.3437636133842 12.3668505453411 6.64418684667908
270 87 3 0 14.5837636133842 11.4368505453411 6.64418684667908
271 88 3 0 0.196523281484842 11.2371599107888 13.5155284940265
272 88 4 0 1.15652328148484 11.2371599107888 13.5155284940265
273 88 3 0 1.39652328148484 10.3071599107888 13.5155284940265
274 89 3 0 5.21300479114987 2.57708572241478 8.59901748946868
275 89 4 0 6.17300479114987 2.57708572241478 8.59901748946868
276 89 3 0 6.41300479114987 1.64708572241478 8.59901748946868
277 90 3 0 5.76844835115597 0.397018019985408 10.4352478834335
278 90 4 0 6.72844835115597 0.397018019985408 10.4352478834335
279 90 3 0 6.96844835115597 -0.532981980014593 10.4352478834335
280 91 3 0 8.1256639519427 0.398822458637878 13.3774833090138
281 91 4 0 9.0856639519427 0.398822458637878 13.3774833090138
282 91 3 0 9.3256639519427 -0.531177541362122 13.3774833090138
283 92 3 0 5.58943406140432 7.61510211200453 11.8468008376658
284 92 4 0 6.54943406140432 7.61510211200453 11.8468008376658
285 92 3 0 6.78943406140432 6.68510211200453 11.8468008376658
286 93 3 0 12.9688462642673 0.332537771146744 14.7558362991549
287 93 4 0 13.9288462642673 0.332537771146744 14.7558362991549
288 93 3 0 14.1688462642673 -0.597462228853256 14.7558362991549
289 94 3 0 1.78365574727766 11.3391763651185 5.26706311153248
290 94 4 0 2.74365574727766 11.3391763651185 5.26706311153248
291 94 3 0 2.98365574727766 10.4091763651185 5.26706311153248
292 95 3 0 3.04380772562698 7.08024248056114 14.8767535400111
293 95 4 0 4.00380772562698 7.08024248056114 14.8767535400111
294 95 3 0 4.24380772562698 6.15024248056114 14.8767535400111
295 96 3 0 12.4659611696564 1.82162157999352 14.9351373373065
296 96 4 0 13.4259611696564 1.82162157999352 14.9351373373065
297 96 3 0 13.6659611696564 0.891621579993516 14.9351373373065
298 97 3 0 2.21920521391556 8.18326712044887 12.4614137015305
299 97 4 0 3.17920521391556 8.18326712044887 12.4614137015305
300 97 3 0 3.41920521391556 7.25326712044887 12.4614137015305
301 98 3 0 4.14958835972473 4.63059157639742 2.52294686855748
302 98 4 0 5.10958835972473 4.63059157639742 2.52294686855748
303 98 3 0 5.34958835972473 3.70059157639742 2.52294686855748
304 99 3 0 13.0176118660904 0.348178751710802 14.3595993483905
305 99 4 0 13.9776118660904 0.348178751710802 14.3595993483905
306 99 3 0 14.2176118660904 -0.581821248289198 14.3595993483905
307 100 3 0 0.576658295905218 14.8465141355433 1.24752637697384
308 100 4 0 1.53665829590522 14.8465141355433 1.24752637697384
309 100 3 0 1.77665829590522 13.9165141355433 1.24752637697384
310 101 3 0 5.97172289664857 7.02111702453345 11.0038932447787
311 101 4 0 6.93172289664857 7.02111702453345 11.0038932447787
312 101 3 0 7.17172289664857 6.09111702453345 11.0038932447787
313 102 3 0 1.56475002804771 8.5195953123644 10.3888161107898
314 102 4 0 2.52475002804771 8.5195953123644 10.3888161107898
315 102 3 0 2.76475002804771 7.5895953123644 10.3888161107898
316 103 3 0 11.2120946792141 7.15350499417633 1.09683336806484
317 103 4 0 12.1720946792141 7.15350499417633 1.09683336806484
318 103 3 0 12.4120946792141 6.22350499417633 1.09683336806484
319 104 3 0 11.1378281218652 11.8377140808757 11.2703876907472
320 104 4 0 12.0978281218652 11.8377140808757 11.2703876907472
321 104 3 0 12.3378281218652 10.9077140808757 11.2703876907472
322 105 3 0 5.23864549046382 1.89311680774204 8.09137399191968
323 105 4 0 6.19864549046382 1.89311680774204 8.09137399191968
324 105 3 0 6.43864549046382 0.963116807742044 8.09137399191968
325 106 3 0 10.6862561374158 11.7874598530494 9.2883036180865
326 106 4 0 11.6462561374158 11.7874598530494 9.2883036180865
327 106 3 0 11.8862561374158 10.8574598530494 9.2883036180865
328 107 3 0 13.7549770767521 1.76028261002153 8.01701722433791
329 107 4 0 14.7149770767521 1.76028261002153 8.01701722433791
330 107 3 0 14.9549770767521 0.830282610021531 8.01701722433791
331 108 3 0 8.4484356238693 14.5538478185795 7.62957090279087
332 108 4 0 9.4084356238693 14.5538478185795 7.62957090279087
333 108 3 0 9.6484356238693 13.6238478185795 7.62957090279087
334 109 3 0 8.49068181982264 12.7191038259212 3.33919231896289
335 109 4 0 9.45068181982264 12.7191038259212 3.33919231896289
336 109 3 0 9.69068181982264 11.7891038259212 3.33919231896289
337 110 3 0 0.149094296358526 10.8851001997851 5.7934195920825
338 110 4 0 1.10909429635853 10.8851001997851 5.7934195920825
339 110 3 0 1.34909429635853 9.95510019978508 5.7934195920825
340 111 3 0 8.89430804338306 0.854931294862181 12.6789594325237
341 111 4 0 9.85430804338306 0.854931294862181 12.6789594325237
342 111 3 0 10.0943080433831 -0.0750687051378191 12.6789594325237
343 112 3 0 13.0108430986013 1.79509386926889 0.648833024315536
344 112 4 0 13.9708430986013 1.79509386926889 0.648833024315536
345 112 3 0 14.2108430986013 0.865093869268894 0.648833024315536
346 113 3 0 5.78474333320744 11.0245825005136 4.66649088193662
347 113 4 0 6.74474333320744 11.0245825005136 4.66649088193662
348 113 3 0 6.98474333320744 10.0945825005136 4.66649088193662
349 114 3 0 10.481998970937 9.96499203768559 1.45170969888568
350 114 4 0 11.441998970937 9.96499203768559 1.45170969888568
351 114 3 0 11.681998970937 9.03499203768559 1.45170969888568
352 115 3 0 -0.314743157504126 10.9935959351156 9.87385824671946
353 115 4 0 0.645256842495874 10.9935959351156 9.87385824671946
354 115 3 0 0.885256842495874 10.0635959351156 9.87385824671946
355 116 3 0 13.867441929616 2.24802842288278 4.2903305136133
356 116 4 0 14.827441929616 2.24802842288278 4.2903305136133
357 116 3 0 15.067441929616 1.31802842288278 4.2903305136133
358 117 3 0 1.72059568969533 8.76138404984027 8.82072598091327
359 117 4 0 2.68059568969533 8.76138404984027 8.82072598091327
360 117 3 0 2.92059568969533 7.83138404984027 8.82072598091327
361 118 3 0 -0.553057355135679 11.8016420576628 11.6915006039198
362 118 4 0 0.406942644864321 11.8016420576628 11.6915006039198
363 118 3 0 0.646942644864321 10.8716420576628 11.6915006039198
364 119 3 0 10.5667499096319 11.3079842684697 0.411793626844883
365 119 4 0 11.5267499096319 11.3079842684697 0.411793626844883
366 119 3 0 11.7667499096319 10.3779842684697 0.411793626844883
367 120 3 0 9.89239429749548 14.59631716175 3.54539790772833
368 120 4 0 10.8523942974955 14.59631716175 3.54539790772833
369 120 3 0 11.0923942974955 13.66631716175 3.54539790772833
370 121 3 0 10.1451399251539 6.24872023629956 14.4566546415444
371 121 4 0 11.1051399251539 6.24872023629956 14.4566546415444
372 121 3 0 11.3451399251539 5.31872023629956 14.4566546415444
373 122 3 0 12.0852375570405 12.9382568671741 4.84069858328439
374 122 4 0 13.0452375570405 12.9382568671741 4.84069858328439
375 122 3 0 13.2852375570405 12.0082568671741 4.84069858328439
376 123 3 0 8.38965276765637 11.9701981839631 5.12754079070874
377 123 4 0 9.34965276765637 11.9701981839631 5.12754079070874
378 123 3 0 9.58965276765637 11.0401981839631 5.12754079070874
379 124 3 0 13.1166504013538 11.9064428754523 13.4986048692372
380 124 4 0 14.0766504013538 11.9064428754523 13.4986048692372
381 124 3 0 14.3166504013538 10.9764428754523 13.4986048692372
382 125 3 0 11.4664019602071 9.70953152206726 7.82971136388369
383 125 4 0 12.4264019602071 9.70953152206726 7.82971136388369
384 125 3 0 12.6664019602071 8.77953152206726 7.82971136388369
385 126 3 0 0.964647663496435 4.28062616073526 10.9274283028208
386 126 4 0 1.92464766349643 4.28062616073526 10.9274283028208
387 126 3 0 2.16464766349643 3.35062616073526 10.9274283028208
388 127 3 0 3.37972076537088 7.97846888815053 10.1109796750825
389 127 4 0 4.33972076537088 7.97846888815053 10.1109796750825
390 127 3 0 4.57972076537088 7.04846888815053 10.1109796750825
391 128 3 0 4.06370099212043 12.3174911345728 2.14252874837257
392 128 4 0 5.02370099212043 12.3174911345728 2.14252874837257
393 128 3 0 5.26370099212043 11.3874911345728 2.14252874837257
394 129 3 0 12.1608868734632 1.81724420091137 1.56609371071681
395 129 4 0 13.1208868734632 1.81724420091137 1.56609371071681
396 129 3 0 13.3608868734632 0.887244200911373 1.56609371071681
397 130 3 0 3.87878676803783 0.312397136995569 6.07649318058975
398 130 4 0 4.83878676803783 0.312397136995569 6.07649318058975
399 130 3 0 5.07878676803783 -0.617602863004431 6.07649318058975
400 131 3 0 2.3051664435491 5.15614650253206 4.93147983332165
401 131 4 0 3.2651664435491 5.15614650253206 4.93147983332165
402 131 3 0 3.5051664435491 4.22614650253206 4.93147983332165
403 132 3 0 4.20948485654779 2.14868914144114 1.97107560932636
404 132 4 0 5.16948485654779 2.14868914144114 1.97107560932636
405 132 3 0 5.40948485654779 1.21868914144114 1.97107560932636
406 133 3 0 7.80518962346949 6.5772609242145 1.08233898645267
407 133 4 0 8.76518962346949 6.5772609242145 1.08233898645267
408 133 3 0 9.00518962346949 5.6472609242145 1.08233898645267
409 134 3 0 7.82539777385071 8.05476022343151 12.4417390138842
410 134 4 0 8.78539777385071 8.05476022343151 12.4417390138842
411 134 3 0 9.02539777385071 7.12476022343151 12.4417390138842
412 135 3 0 10.2975988648552 1.62633491488174 8.40411829878576
413 135 4 0 11.2575988648552 1.62633491488174 8.40411829878576
414 135 3 0 11.4975988648552 0.696334914881736 8.40411829878576
415 136 3 0 5.2721573556494 6.35793616221286 9.06205713981763
416 136 4 0 6.2321573556494 6.35793616221286 9.06205713981763
417 136 3 0 6.4721573556494 5.42793616221286 9.06205713981763
418 137 3 0 2.98773133356124 15.0273669189215 7.51482036779635
419 137 4 0 3.94773133356124 15.0273669189215 7.51482036779635
420 137 3 0 4.18773133356124 14.0973669189215 7.51482036779635
421 138 3 0 6.09909986422397 10.045940505052 11.8134526361246
422 138 4 0 7.05909986422397 10.045940505052 11.8134526361246
423 138 3 0 7.29909986422397 9.11594050505199 11.8134526361246
424 139 3 0 5.15361841695383 8.10698246973567 4.63520307792351
425 139 4 0 6.11361841695383 8.10698246973567 4.63520307792351
426 139 3 0 6.35361841695383 7.17698246973567 4.63520307792351
427 140 3 0 5.17489207835868 13.3854201312084 9.27211397560313
428 140 4 0 6.13489207835868 13.3854201312084 9.27211397560313
429 140 3 0 6.37489207835868 12.4554201312084 9.27211397560313
430 141 3 0 3.04124976784922 6.1161649883166 0.724985747365281
431 141 4 0 4.00124976784922 6.1161649883166 0.724985747365281
432 141 3 0 4.24124976784922 5.1861649883166 0.724985747365281
433 142 3 0 3.35087121158838 0.702784280702472 9.17453376227058
434 142 4 0 4.31087121158838 0.702784280702472 9.17453376227058
435 142 3 0 4.55087121158838 -0.227215719297528 9.17453376227058
436 143 3 0 6.36434118772857 3.14663712558337 6.6615698277019
437 143 4 0 7.32434118772857 3.14663712558337 6.6615698277019
438 143 3 0 7.56434118772857 2.21663712558337 6.6615698277019
439 144 3 0 5.0835914262291 11.1142086369824 7.91052152286284
440 144 4 0 6.0435914262291 11.1142086369824 7.91052152286284
441 144 3 0 6.2835914262291 10.1842086369824 7.91052152286284
442 145 3 0 8.32686456662603 11.5487596408371 7.37608211464249
443 145 4 0 9.28686456662603 11.5487596408371 7.37608211464249
444 145 3 0 9.52686456662603 10.6187596408371 7.37608211464249
445 146 3 0 11.5360841264203 2.35492410179228 14.7951459547039
446 146 4 0 12.4960841264203 2.35492410179228 14.7951459547039
447 146 3 0 12.7360841264203 1.42492410179228 14.7951459547039
448 147 3 0 0.782951363800094 15.2511364784464 7.27343305014074
449 147 4 0 1.74295136380009 15.2511364784464 7.27343305014074
450 147 3 0 1.98295136380009 14.3211364784464 7.27343305014074
451 148 3 0 9.36391141891479 10.0103220091574 7.99042906262912
452 148 4 0 10.3239114189148 10.0103220091574 7.99042906262912
453 148 3 0 10.5639114189148 9.08032200915739 7.99042906262912
454 149 3 0 13.4356459211279 2.86677155335434 5.533329450991
455 149 4 0 14.3956459211279 2.86677155335434 5.533329450991
456 149 3 0 14.6356459211279 1.93677155335434 5.533329450991
457 150 3 0 5.5831535607297 10.8255781889334 3.21322794305161
458 150 4 0 6.5431535607297 10.8255781889334 3.21322794305161
459 150 3 0 6.7831535607297 9.89557818893343 3.21322794305161
460 151 3 0 2.8114137255773 13.5629405283276 8.36296732770279
461 151 4 0 3.7714137255773 13.5629405283276 8.36296732770279
462 151 3 0 4.0114137255773 12.6329405283276 8.36296732770279
463 152 3 0 -0.690010947436094 4.35610537341796 0.604425736237317
464 152 4 0 0.269989052563906 4.35610537341796 0.604425736237317
465 152 3 0 0.509989052563906 3.42610537341796 0.604425736237317
466 153 3 0 10.3645007607713 5.6855545092281 13.0115731107071
467 153 4 0 11.3245007607713 5.6855545092281 13.0115731107071
468 153 3 0 11.5645007607713 4.7555545092281 13.0115731107071
469 154 3 0 9.64585126072168 6.34877996327355 7.34255383140408
470 154 4 0 10.6058512607217 6.34877996327355 7.34255383140408
471 154 3 0 10.8458512607217 5.41877996327355 7.34255383140408
472 155 3 0 13.4742160448525 14.8265189623367 1.56504547339864
473 155 4 0 14.4342160448525 14.8265189623367 1.56504547339864
474 155 3 0 14.6742160448525 13.8965189623367 1.56504547339864
475 156 3 0 0.920799954766408 13.2010009667743 1.0942145541776
476 156 4 0 1.88079995476641 13.2010009667743 1.0942145541776
477 156 3 0 2.12079995476641 12.2710009667743 1.0942145541776