LAMMPS (29 Sep 2021 - Update 1)
# Test LAMMPS input file for single DeFDe

# Initialize simulation

clear

units real
atom_style full
boundary p p p
dielectric 1
special_bonds dreiding

bond_style harmonic
angle_style harmonic
dihedral_style harmonic
improper_style umbrella
pair_style hybrid/overlay hbond/dreiding/lj 4 9.0 11.0 90 lj/cut 8.50000

# Read data file
read_data frag5.dat
Reading data file ...
  triclinic box = (0.0000000 0.0000000 0.0000000) to (15.000000 15.000000 15.000000) with tilt (0.0000000 0.0000000 0.0000000)
  2 by 4 by 4 MPI processor grid
  reading atoms ...
  1512 atoms
  scanning bonds ...
  3 = max bonds/atom
  scanning angles ...
  3 = max angles/atom
  scanning dihedrals ...
  8 = max dihedrals/atom
  scanning impropers ...
  2 = max impropers/atom
  reading bonds ...
  1012 bonds
  reading angles ...
  518 angles
  reading dihedrals ...
  24 dihedrals
  reading impropers ...
  6 impropers
Finding 1-2 1-3 1-4 neighbors ...
  special bond factors lj:    0        0        1       
  special bond factors coul:  0        0        1       
     3 = max # of 1-2 neighbors
     4 = max # of 1-3 neighbors
     7 = max # of special neighbors
  special bonds CPU = 0.002 seconds
  read_data CPU = 0.017 seconds

# Dreiding potential information

bond_coeff 1 525 1.39
bond_coeff 2 350 1.02
bond_coeff 3 350 0.98

angle_coeff 1 50 120
angle_coeff 2 50 104.51

dihedral_coeff 1 3.125 -1 2

improper_coeff 1 40 0

pair_coeff 1 1 lj/cut 0.0951 3.8983
pair_coeff 1 2 lj/cut 0.0380199947396104 3.52917391183829
pair_coeff 1 3 lj/cut 0.00308382878902186 3.52806914614779
pair_coeff 1 4 lj/cut 0.0953995283007206 3.64309650983885
pair_coeff 2 2 lj/cut 0.0152 3.195
pair_coeff 2 3 lj/cut 0.0012328828005938 3.19399984345648
pair_coeff 2 4 lj/cut 0.0381397430510485 3.29813538230316
pair_coeff 3 3 lj/cut 1e-04 3.193
pair_coeff 3 4 lj/cut 0.0030935416596516 3.29710294046152
pair_coeff 4 4 lj/cut 0.0957 3.4046
pair_coeff 4 4 hbond/dreiding/lj 3 j 9.50 2.75 4 9.0 11.0 90

neighbor 2 bin
neigh_modify every 2 one 10000

# Gemoetric relaxation
fix 1 all box/relax iso 1.0 vmax 0.001
minimize 1.0e-4 1.0e-6 10000 10000
WARNING: Using 'neigh_modify every 1 delay 0 check yes' setting during minimization (../min.cpp:188)
Neighbor list info ...
  update every 1 steps, delay 0 steps, check yes
  max neighbors/atom: 10000, page size: 100000
  master list distance cutoff = 13
  ghost atom cutoff = 13
  binsize = 6.5, bins = 3 3 3
  3 neighbor lists, perpetual/occasional/extra = 3 0 0
  (1) pair hbond/dreiding/lj, perpetual, skip from (3)
      attributes: full, newton on
      pair build: skip
      stencil: none
      bin: none
  (2) pair lj/cut, perpetual, half/full from (3)
      attributes: half, newton on
      pair build: halffull/newton
      stencil: none
      bin: none
  (3) neighbor class addition, perpetual
      attributes: full, newton on
      pair build: full/bin
      stencil: full/bin/3d
      bin: standard
Per MPI rank memory allocation (min/avg/max) = 13.40 | 13.75 | 14.19 Mbytes
Step Temp E_pair E_mol TotEng Press Volume 
       0            0 3.3234919e+19    299.66033 3.3234919e+19 2.7008779e+21         3375 
    5440            0   -1006.2432    27.650966   -978.59222    109.60092    37986.909 
Loop time of 5.1616 on 32 procs for 5440 steps with 1512 atoms

100.0% CPU use with 32 MPI tasks x no OpenMP threads

Minimization stats:
  Stopping criterion = energy tolerance
  Energy initial, next-to-last, final = 
    3.32349189416571e+19  -978.009202331868  -978.087436610547
  Force two-norm initial, final = 7.5986948e+21 107.43665
  Force max component initial, final = 5.0436136e+21 80.539921
  Final line search alpha, max atom move = 1.6474139e-05 0.0013268259
  Iterations, force evaluations = 5440 5445

MPI task timing breakdown:
Section |  min time  |  avg time  |  max time  |%varavg| %total
---------------------------------------------------------------
Pair    | 1.5022     | 2.6129     | 4.4095     |  41.7 | 50.62
Bond    | 0.0076437  | 0.01147    | 0.017157   |   2.2 |  0.22
Neigh   | 0.097677   | 0.097924   | 0.098157   |   0.0 |  1.90
Comm    | 0.26706    | 2.0661     | 3.1751     |  46.9 | 40.03
Output  | 0          | 0          | 0          |   0.0 |  0.00
Modify  | 0          | 0          | 0          |   0.0 |  0.00
Other   |            | 0.3732     |            |       |  7.23

Nlocal:        47.2500 ave          69 max          33 min
Histogram: 5 4 2 5 5 4 4 1 1 1
Nghost:        1920.38 ave        1986 max        1847 min
Histogram: 2 3 4 7 0 1 1 6 3 5
Neighs:        4886.66 ave        8333 max        2799 min
Histogram: 4 4 4 9 1 3 4 2 0 1

Total # of neighbors = 156373
Ave neighs/atom = 103.42130
Ave special neighs/atom = 2.0238095
Neighbor list builds = 95
Dangerous builds = 0

# MD simulation
velocity all create 300.0 12345 rot yes dist gaussian
timestep 1.0
fix 2 all nvt temp 300.0 300.0 1

# Compute interaction energy
group WAT molecule <> 2 501
1500 atoms in group WAT
group MOL molecule 1
12 atoms in group MOL

compute w WAT group/group MOL pair yes
fix 3 all ave/time 10 5 100 c_w file outa

# Outputs
thermo 100 # Output thermodynamic data every nth step
#dump mf1 all xyz 10000 mol_*.xyz

# Run
run 1000000
Neighbor list info ...
  update every 2 steps, delay 10 steps, check yes
  max neighbors/atom: 10000, page size: 100000
  master list distance cutoff = 13
  ghost atom cutoff = 13
  binsize = 6.5, bins = 6 6 6
  4 neighbor lists, perpetual/occasional/extra = 3 1 0
  (1) pair hbond/dreiding/lj, perpetual, skip from (4)
      attributes: full, newton on
      pair build: skip
      stencil: none
      bin: none
  (2) pair lj/cut, perpetual, half/full from (4)
      attributes: half, newton on
      pair build: halffull/newton
      stencil: none
      bin: none
  (3) compute group/group, occasional, copy from (2)
      attributes: half, newton on
      pair build: copy
      stencil: none
      bin: none
  (4) neighbor class addition, perpetual
      attributes: full, newton on
      pair build: full/bin
      stencil: full/bin/3d
      bin: standard
Per MPI rank memory allocation (min/avg/max) = 12.24 | 12.33 | 12.66 Mbytes
Step Temp E_pair E_mol TotEng Press Volume 
    5440          300   -1006.2432    27.650966    372.60898    1735.5948    37986.909 
    5500    310.09355   -1003.6266    189.84802    582.88402    32.492957    37986.909 
    5600    297.21164   -1033.5888    199.32517    504.37884    -89.86747    37986.909 
    5700    300.06728   -1035.5135    190.89146    506.88216    785.60054    37986.909 
    5800    300.11493   -1045.8646    181.21372    487.06798    859.83486    37986.909 
    5900    293.48584    -1042.107    184.27444    464.02881    1137.5147    37986.909 
    6000    304.92668   -1092.4653    183.67414    464.59983    761.43685    37986.909 
    6100    295.77999    -1047.154    203.75704    488.79732    1124.0227    37986.909 
    6200    296.44532   -1046.1645    185.62225    474.64865    615.76927    37986.909 
    6300    315.12484   -1002.3752    203.09523    620.04355    1070.2266    37986.909 
    6400    289.90453   -991.68615    200.06516    514.11017    776.78961    37986.909 
    6500    293.98782   -1010.5173    194.54084    508.14583    400.43592    37986.909 
    6600    308.12391   -1010.8572    207.63971    584.57382    779.06348    37986.909 
    6700    300.24789   -997.91828     191.2382    545.63761   -8.2996697    37986.909 
    6800    292.88368    -1004.573    202.66534    517.24165    63.170272    37986.909 
    6900    300.27948   -1012.1009    211.66335    552.02239    247.30306    37986.909 
    7000    303.22197   -1024.0312    205.87824    547.55999    335.13782    37986.909 
    7100    309.11173   -1022.6091    206.95794    576.58933    391.31528    37986.909 
    7200    307.59937   -1070.5011    198.68996    513.61769    640.92665    37986.909 
    7300     285.9155   -1048.7655    219.38019    458.37927    422.13611    37986.909 
    7400    306.56651    -1025.528    215.45777    570.70659    19.173314    37986.909 
    7500    294.63694   -1005.6138    209.47058    530.90277    369.23983    37986.909 
    7600    301.68959    -977.8271    203.91567     584.8997    459.98102    37986.909 
    7700    297.50262   -1007.3489    225.57389    558.17801    575.62092    37986.909 
    7800    298.22332   -1006.1001    220.84683    557.94571    319.33682    37986.909 
    7900    296.53987   -1007.6933    221.56064    549.48416    12.381953    37986.909 
    8000    299.92122   -1057.1381    218.61658    512.32488    510.88444    37986.909 
    8100     303.4674   -1012.5892    233.48513    587.71427    624.17174    37986.909 
    8200    303.26343   -1050.6074    223.07945    538.37171    715.70268    37986.909 
    8300    298.19349   -1044.8551    219.29995    517.50952   -47.710964    37986.909 
    8400    298.41055   -1069.0798    216.83962    491.80213    311.27123    37986.909 
    8500    292.08822   -1085.2409    230.83858    461.16415    241.55286    37986.909 
    8600    295.43243   -1074.2416    227.58959     483.9768    625.15117    37986.909 
    8700    294.16489   -1060.2077    219.36993     484.0821    624.11712    37986.909 
    8800    303.56239   -1103.0889    242.62985    506.78722    83.857969    37986.909 
    8900     294.4073   -1063.7771    221.58092    483.81553    253.58725    37986.909 
    9000    288.83574   -1103.8957    235.30218    432.32382    33.123954    37986.909 
    9100     301.3794   -1090.4165    228.23791    495.23542    157.92052    37986.909 
    9200    304.64207   -1092.4928    225.28923    504.90551    52.224294    37986.909 
    9300    309.77721   -1099.0478    230.26748    526.45746    202.80197    37986.909 
    9400    298.73365   -1080.9848    242.86014    507.37287    103.97878    37986.909 
    9500    301.09039   -1117.3392    238.80457    477.57766   -164.85861    37986.909 
    9600    296.55265   -1088.1019    256.47133    504.04377    639.14715    37986.909 
    9700    299.20427   -1030.1664    238.89586    556.34667    302.68109    37986.909 
    9800    291.81315   -1072.0295     248.0492    490.34727    197.38539    37986.909 
    9900    288.56728   -1030.9253    253.59404    522.37695    672.97412    37986.909 
   10000    299.53789   -1042.5442     254.6903    561.26589     571.5566    37986.909 
   10100    296.18991   -1056.9879    234.11611    511.16878   -62.662608    37986.909 
   10200    306.69619   -1052.7808     256.1112    584.69129    528.94135    37986.909 
   10300    299.38067   -1086.1778    248.24699    510.48091    322.06912    37986.909 
   10400    298.54512   -1085.8015    227.83032    486.67723    995.87908    37986.909 
   10500    303.10262   -1103.4087    266.25124    528.01796    577.46227    37986.909 
   10600    302.89301   -1076.5827    232.11516    519.76379    691.64678    37986.909 
   10700    297.51468   -1090.8616    243.32025     492.4659    377.81102    37986.909 
   10800    300.71705   -1068.9739    261.85907    547.31595     384.7288    37986.909 
   10900    302.21583   -1078.3246     255.2919    538.14862     275.5267    37986.909 
   11000    287.50743   -1107.1601    256.19515    443.96968   -494.53424    37986.909 
   11100    298.13959   -1103.0893    244.99618    484.72883   -192.47959    37986.909 
   11200    295.76213   -1113.5886    261.14968    479.67483   -242.69681    37986.909 
   11300    294.96666    -1133.834    258.69556    453.39261   -474.07455    37986.909 
   11400    305.47404   -1128.5406    255.64067    502.95631   -267.46974    37986.909 
   11500    293.78555    -1131.197    246.26468    438.27894   -111.10424    37986.909 
   11600    301.21643   -1107.9465    254.53795    503.27145    11.467394    37986.909 
   11700     288.7758   -1118.9125    242.16454    423.89938   -118.01536    37986.909 
   11800    305.22236   -1093.7049     260.1518    541.16962    463.37187    37986.909 
   11900    289.44432   -1147.7562    248.86862    404.77081    23.548242    37986.909 
   12000    306.28055   -1190.5863    245.80925    434.71173   -185.06932    37986.909 
   12100    296.50205   -1131.2266     258.4542    462.67402    693.02167    37986.909 
   12200    299.10716   -1193.3436    247.15456     400.9908    214.74875    37986.909 
   12300    295.41393   -1113.3734    252.15223    469.32434    397.20457    37986.909 
   12400    297.57623   -1150.9994    248.10276    437.38786    478.95829    37986.909 
   12500    294.74296   -1114.0722    258.18789     471.6391     690.6002    37986.909 
   12600    296.06904   -1083.6309    261.47432    511.33958    461.24081    37986.909 
   12700     299.6439   -1084.6369    268.66687    533.62732    501.05684    37986.909 
   12800    305.38906   -1110.5544    254.73132    519.65049    662.31596    37986.909 
   12900    297.12196   -1143.2291    269.80923    464.81861    57.039145    37986.909 
   13000    290.55008   -1128.8922    258.96658    438.71316    210.83486    37986.909 
   13100    293.22969   -1112.6445    280.54134    488.60459     33.10761    37986.909 
   13200    298.72837   -1142.1576    275.59093    478.90705    405.40128    37986.909 
   13300    302.81951    -1169.712    260.01741    454.20576    529.14399    37986.909 
   13400    293.48999   -1162.6451     270.4861    429.72107    374.03249    37986.909 
   13500    297.45533      -1180.5    257.74997    416.98993    478.47245    37986.909 
   13600     296.8597   -1225.5314    269.35061    380.87652    673.02986    37986.909 
   13700    294.32392   -1215.4043    282.55073    392.78252    212.09171    37986.909 
   13800    310.80836   -1187.6831    265.32714    477.52612    368.79148    37986.909 
   13900    293.79671   -1162.6224     269.7622    430.40135    27.841333    37986.909 
   14000    291.13984   -1158.0656    264.49965    417.72902   -82.939455    37986.909 
   14100     294.1802   -1115.6183    274.54103    483.91158   -14.438236    37986.909 
   14200    290.85123   -1147.3258    283.37506    446.04442   -117.57102    37986.909 
   14300    308.44578   -1145.9627    278.18892    521.46719    674.19218    37986.909 
   14400    304.71046   -1164.3222    282.86832     490.9633    169.02904    37986.909 
   14500    293.09796   -1124.6327    273.30845     468.7901    53.586475    37986.909 
   14600      296.282   -1099.4953    292.47983    527.43982    7.9890472    37986.909 
   14700     303.9129    -1138.656    264.51138    494.68026      -165.92    37986.909 
   14800    310.89663   -1136.1001    275.15592    539.33549   -65.950172    37986.909 
   14900    312.64863   -1156.6293    299.02242    550.56384   -115.07985    37986.909 
   15000    308.01832   -1128.6501    281.03504    539.70067    175.61636    37986.909 
   15100    302.18418   -1146.0672    297.00577    511.97732   -81.950404    37986.909 
   15200    296.06002    -1153.267    282.59132    462.77983   -247.80512    37986.909 
   15300    309.61823   -1150.8682    289.64017    533.29375    421.38219    37986.909 
   15400    290.88818    -1173.665    286.59025    423.08677   -97.926387    37986.909 
   15500    309.07913   -1143.0138    286.09677    535.17666    370.69827    37986.909 
   15600    306.04977   -1165.4505    285.19677    498.19571     36.98062    37986.909 
   15700    309.18759   -1162.5416    281.62068    511.66124    180.65131    37986.909 
   15800    306.18119   -1146.2248    284.11972    516.93625     481.1648    37986.909 
   15900     301.5018   -1136.2561    292.53057    514.23978    490.90841    37986.909 
   16000    308.03583   -1154.8384    285.29258     517.8488    260.07539    37986.909 
   16100    292.92332   -1138.6133    283.87842    464.59291     366.8683    37986.909 
   16200    307.05492   -1161.2892    289.62026    511.30767    471.61497    37986.909 
   16300    288.02867   -1181.8692    288.98588    404.39898     217.4155    37986.909 
   16400    291.38918   -1151.7872    294.73927    455.37008    451.14538    37986.909 
   16500    304.83498   -1166.8193    285.48622    491.64493     313.4959    37986.909 
   16600     314.3818   -1142.7778    283.06521    556.26425    296.06546    37986.909 
   16700    295.82133   -1152.7281    280.68738    460.33974    138.75557    37986.909 
   16800    297.42938   -1151.7675    285.59779    473.45334    196.27033    37986.909 
   16900    298.18882   -1144.1073    296.42541    495.36171    94.654877    37986.909 
   17000     291.7283   -1137.2382    292.94969    469.65696   -142.88622    37986.909 
   17100    293.40655    -1196.876    307.10847    431.73675      287.133    37986.909 
   17200    300.61698   -1176.0012    281.31601    459.29487   -96.983249    37986.909 
   17300    300.55041   -1162.6479    322.59739    513.62978    323.03279    37986.909 
   17400    296.32388   -1173.8086     278.5037      439.339    346.10932    37986.909 
   17500    306.39114   -1189.8444    284.23058    474.37308    275.71807    37986.909 
   17600    309.76133   -1174.3639    326.97156    547.77394    549.95123    37986.909 
   17700    296.92601   -1138.4843    306.38146    505.25305    312.24512    37986.909 
   17800     301.9805   -1209.8329    288.96921    439.25767   -123.17014    37986.909 
   17900    304.75051   -1180.5441    290.21677    482.27022    391.80188    37986.909 
   18000     310.8127   -1216.2122    300.93811    484.62755    295.20973    37986.909 
   18100    308.84617   -1227.4049    300.44568    464.08519    400.34412    37986.909 
   18200    298.02115   -1176.1389    306.71265    472.86214    198.29783    37986.909 
   18300    287.85963   -1127.6783    300.85788    469.70054   -303.89528    37986.909 
   18400    304.63353   -1141.5144    311.62692    542.18317    22.959233    37986.909 
   18500    295.24219   -1234.5945     303.2376    398.41513   -438.24185    37986.909 
   18600    287.49642   -1167.3507    305.15211    432.68647   -311.69887    37986.909 
   18700    297.51186    -1141.567    314.02992    512.45748   -195.51649    37986.909 
   18800    292.89889   -1167.5649    313.59553    465.24835   -473.05099    37986.909 
   18900    297.36981    -1181.088    299.44631    457.71308    355.75978    37986.909 
   19000    297.78184    -1149.337    313.17353     505.0471    249.24875    37986.909 
   19100    296.26203   -1221.4102    310.02835    422.98355    559.36741    37986.909 
   19200    308.49434   -1203.6301    301.26745    487.09704    562.05518    37986.909 
   19300    308.00079   -1156.4556     319.2519    550.03307    822.87264    37986.909 
   19400    307.88662   -1177.5309    302.62742    511.81908    954.62852    37986.909 
   19500    302.25044   -1186.3574    292.81693    467.79675    809.88336    37986.909 
   19600    302.66562   -1175.9613    325.26095    512.50684    616.37746    37986.909 
   19700    293.74538   -1183.2691    309.03664    448.79793    652.45434    37986.909 
   19800    296.99695    -1146.599    322.20496    513.28139    530.88463    37986.909 
   19900    309.50817   -1162.1584    307.29282    539.16044    676.46192    37986.909 
   20000    314.42317   -1124.6403     304.9423    596.46517      192.971    37986.909 
   20100    308.63135   -1162.7888    305.27572    532.56378    323.65015    37986.909 
   20200    303.93127   -1200.9256    301.34142    469.32344    104.86861    37986.909 
   20300    298.34183   -1207.1288     314.0499    450.65386    397.50449    37986.909 
   20400    305.05694   -1176.2251     320.4584      518.211    542.90787    37986.909 
   20500     307.8182   -1188.2534    315.16111    513.32207     568.3233    37986.909 
   20600    299.06513   -1218.1972    300.46795     429.2613    11.931764    37986.909 
   20700    298.17061   -1180.9332    323.68167    485.71007     124.8975    37986.909 
   20800    291.68426   -1185.6223    309.30699    437.43176    466.61122    37986.909 
   20900    305.55775   -1177.7427     309.3087    507.79935    61.015712    37986.909 
   21000    305.51079   -1209.8631    312.02541    478.18413   -156.98832    37986.909 
   21100    309.43672   -1205.5833    299.26536    487.38634   -131.16506    37986.909 
   21200    316.03281   -1214.1064    330.95668    540.26326    144.35152    37986.909 
   21300    293.17389   -1156.4038     309.3577    473.41031    211.83285    37986.909 
   21400    295.51058   -1181.5777    320.30334    469.70652    52.912943    37986.909 
   21500    292.20681   -1180.0585    341.28233    477.32449    351.38807    37986.909 
   21600    292.42222   -1185.8866    311.46179    442.64603     276.0456    37986.909 
   21700    307.21331    -1185.152    329.70584    528.24381    640.39571    37986.909 
   21800    295.85502    -1121.817     323.2948    534.00994     599.1322    37986.909 
   21900    309.63021   -1191.3948    314.62757    517.80844    608.78594    37986.909 
   22000    308.39566   -1171.8798    329.52229    546.65775    478.08238    37986.909 
   22100     295.9919   -1147.3821    332.75996    518.52655    239.68458    37986.909 
   22200    290.25422   -1201.7199    328.37688    433.96316   -261.47174    37986.909 
   22300    291.01468   -1194.0907    337.75541    454.39593    -163.4572    37986.909 
   22400    294.72153   -1214.7352    339.36689     452.0586    91.839344    37986.909 
   22500    292.33151   -1187.5953    322.61154     451.6785    46.289313    37986.909 
   22600    305.42721     -1199.66    335.02348    511.00885     36.48257    37986.909 
   22700    290.76212   -1128.3159    348.76414      530.042    125.62264    37986.909 
   22800    302.76516    -1147.162    331.62861    548.12214   -138.14628    37986.909 
   22900     300.4259   -1183.0896    336.95783    506.98766    121.72673    37986.909 
   23000    304.12976   -1126.5093    336.74363    580.03601    568.87582    37986.909 
   23100    298.78098   -1149.7371    327.13758    523.11123    277.03519    37986.909 
   23200    304.39922   -1220.1662    333.05145     483.9006    70.949428    37986.909 
   23300    302.30865   -1219.3731     329.7723    471.99859    621.52132    37986.909 
   23400    297.59766    -1236.848    341.91557    445.44864    17.414202    37986.909 
   23500    302.77765   -1239.9699    333.41704    457.15887    524.61965    37986.909 
   23600    314.35619   -1181.6771    317.18377    551.36823    519.72658    37986.909 
   23700     294.0061   -1183.5573    348.05089     488.6982   -158.57702    37986.909 
   23800    311.84374   -1207.0756    319.03844     516.5083    40.207458    37986.909 
   23900    303.43047   -1209.6759    333.05168    490.02782    269.68101    37986.909 
   24000    297.03508    -1215.043    343.44359    466.24771    921.97111    37986.909 
   24100    304.29724   -1186.0887    313.15286    497.62015    622.27982    37986.909 
   24200    306.55295   -1197.7399    338.47459    521.45041    1109.6378    37986.909 
   24300    308.45904    -1187.289    313.14118    515.15292    1152.4803    37986.909 
   24400    296.18121   -1225.1636    335.57613    444.41391    505.96505    37986.909 
   24500    306.94685   -1199.9894     354.3644    536.86484    599.86921    37986.909 
   24600    308.12682   -1208.0117    330.09905    509.89182    495.19315    37986.909 
   24700    299.22166   -1189.7747    351.00655    508.92741     232.7039    37986.909 
   24800    302.14572    -1221.821    314.89847    453.94297     196.6338    37986.909 
   24900    296.73116   -1186.5648    351.42129    501.33478    450.66973    37986.909 
   25000    291.70584   -1281.9769    309.64471    341.51208    59.448013    37986.909 
   25100    298.40155   -1202.9455    317.54642    458.60272    364.57246    37986.909 
   25200    300.31585     -1250.78    338.34683    440.19065    103.95753    37986.909 
   25300    291.66094   -1254.6159    324.38086    383.40699    330.30749    37986.909 
   25400     303.6732   -1261.3057    335.50061    441.94016    260.22044    37986.909 
   25500    299.21327   -1225.9986     329.3022    450.96137    397.34263    37986.909 
   25600    300.61023   -1203.6035    328.27583    478.62195    506.78749    37986.909 
   25700    294.33448   -1216.3751    367.66829    476.97684   -69.923618    37986.909 
   25800    297.52658   -1235.7461    327.31198    431.62684    400.51512    37986.909 
   25900    301.78709   -1221.9267     331.8221    469.14566    -334.0232    37986.909 
   26000    298.40647   -1221.0685    343.89471     466.8501    296.62751    37986.909 
   26100    292.93061   -1264.7863    340.09286    394.66721   -45.415876    37986.909 
   26200     303.9446   -1205.8681    334.30709    497.40673    261.03307    37986.909 
   26300     302.9801   -1226.2721    330.81158    469.16311   -212.23775    37986.909 
   26400    300.32832   -1239.7165    349.81242    462.77589   -150.53851    37986.909 
   26500    308.84207   -1169.4575    340.06901    561.63741   -127.36625    37986.909 
   26600    292.22671   -1202.3766    358.13225    471.94589    309.02849    37986.909 
   26700    310.48417   -1203.5954    349.96312    544.78963    574.29984    37986.909 
   26800    294.12131   -1200.0585    341.20608    465.87112    509.09681    37986.909 
   26900    292.03333   -1188.8842    368.67285    495.10794   -244.11709    37986.909 
   27000    291.25762   -1228.0128    332.67209    416.48478    279.30391    37986.909 
   27100    291.36696   -1200.6042    350.57335    462.28707    47.753035    37986.909 
   27200    300.24715   -1230.8278    333.39453    454.88104    220.20692    37986.909 
   27300    302.79115   -1210.3715    345.60715    499.00825    597.28598    37986.909 
   27400    296.99133   -1197.8586    352.16195     491.9535    237.74893    37986.909 
   27500    302.41065   -1189.8485    351.39909    523.60932    149.79831    37986.909 
   27600    301.02966   -1203.6699     336.8803    489.04922   -73.957603    37986.909 
   27700     301.8574   -1217.8461    346.73513    488.45599    240.63612    37986.909 
   27800    301.18832   -1255.5211    381.45803    482.49036    150.18664    37986.909 
   27900     305.9079    -1235.643    350.27911    492.44649    145.65288    37986.909 
   28000    298.29759   -1211.7861    349.28303    481.03052    266.34769    37986.909 
   28100    292.55809   -1223.2383    344.00514    438.44967    227.63163    37986.909 
   28200    306.39579   -1173.8825    339.03571    545.16104    717.94594    37986.909 
   28300    298.69362   -1186.0161    333.48459    492.78576    33.341037    37986.909 
   28400    304.43418   -1206.2424    350.45319    515.38358     324.7165    37986.909 
   28500    297.60767   -1222.2454    359.16087    477.34159    814.39537    37986.909 
   28600    301.22504   -1227.3557    361.68149    491.04456    817.33468    37986.909 
   28700    302.21908    -1224.418    352.46361    489.24158    593.39781    37986.909 
   28800    295.41881   -1219.3123    361.16495    472.42013     409.8509    37986.909 
   28900    311.87043   -1190.6136    365.65983    579.71185    321.83438    37986.909 
   29000    308.10588   -1228.4867    347.91824     507.1416    410.77903    37986.909 
   29100    284.95528   -1235.9584    364.06545    411.54681     174.2996    37986.909 
   29200    296.63367   -1173.0317    352.74494    515.75246    365.32232    37986.909 
   29300    298.44885   -1235.8091    352.37252    460.77819    263.74184    37986.909 
   29400    296.14331    -1243.472    349.76104    440.11972   -2.3323528    37986.909 
   29500    301.56488   -1199.7229    352.47197    510.99848    202.68995    37986.909 
   29600    307.70645   -1214.7999    365.03898    536.15018   -148.08209    37986.909 
   29700    298.05983   -1189.8136    366.47067     519.1198   -69.407852    37986.909 
   29800    301.95608   -1185.2758    369.62251    544.35808   -189.05954    37986.909 
   29900    294.92906   -1222.6781    347.90885     453.5924   -242.51103    37986.909 
   30000    301.19583   -1203.4549    367.41737    520.54966    443.29854    37986.909 
   30100    307.64277   -1207.8667    353.04347    530.80105    96.650518    37986.909 
   30200    298.10753   -1224.3109    362.19424    480.56082    391.97822    37986.909 
   30300    303.22359   -1208.8887    370.03162    526.86321    12.796827    37986.909 
   30400    305.70267   -1184.3761    374.34603    566.85598     467.0536    37986.909 
   30500    304.45077   -1197.5327    367.76184    541.47657    340.94365    37986.909 
   30600    314.66547   -1234.4322     368.7992    551.62154    -405.8566    37986.909 
   30700    303.80239   -1236.7775    346.91735    478.46706    333.91885    37986.909 
   30800    305.82011   -1231.9322    349.83288    495.31569   -265.49818    37986.909 
   30900    292.58216   -1223.8099    348.79061     442.7719    327.98526    37986.909 
   31000    293.46445   -1267.5605    357.24773    411.45231    135.69997    37986.909 
   31100    307.34017   -1256.2323    387.72385    515.75295    237.22811    37986.909 
   31200    311.38381   -1257.1214    363.89244    509.24498    607.34282    37986.909 
   31300    297.00232   -1241.8608    350.66114    446.49995   -11.297311    37986.909 
   31400     292.0856   -1256.9574    348.07904     406.6764    71.055507    37986.909 
   31500    301.90772   -1266.2709    367.06814    460.59087    493.89983    37986.909 
   31600    312.33942   -1262.9315    360.06204    503.90852     534.8673    37986.909 
   31700    310.14184    -1224.192    342.15253    514.84064    416.79236    37986.909 
   31800    295.32549   -1190.0055    368.62994    508.77165   -44.058115    37986.909 
   31900    294.17267   -1203.0913    388.01587    509.87941    -69.23131    37986.909 
   32000    294.82507   -1212.9475    389.32063    504.26646    288.18454    37986.909 
   32100     321.0143   -1195.4065    360.64151    611.08468    436.28712    37986.909 
   32200    301.70469   -1197.4702     360.8229    522.23184    31.609816    37986.909 
   32300    288.48268   -1188.7041    378.88967    489.51276   -55.683891    37986.909 
   32400    299.40177   -1167.7852    361.07459    541.79619    103.39998    37986.909 
   32500    303.27803   -1229.8431    378.60054    514.72293   -354.25458    37986.909 
   32600    303.58662   -1176.3971    372.41509    563.37329    517.91308    37986.909 
   32700    304.62281    -1198.075    374.72256    548.66994    44.354519    37986.909 
   32800     310.1078   -1206.2831    363.53726    553.98096   -197.51662    37986.909 
   32900    301.51082   -1157.9061    361.01449    561.11436    386.89467    37986.909 
   33000    307.54405   -1233.9964    372.99075      524.174    208.78551    37986.909 
   33100    304.15145   -1236.8239    355.86447    488.93987    309.09555    37986.909 
   33200    297.75089   -1244.2696    353.91173    450.71339    822.14701    37986.909 
   33300    300.53648   -1227.0567    381.88527    508.44609    328.28574    37986.909 
   33400    291.20062    -1207.634     361.9228    465.85753    72.117936    37986.909 
   33500    305.06323   -1243.3401    374.72197    505.38789   -43.522269    37986.909 
   33600    305.21976   -1266.7431    355.04748    463.01541   -261.25037    37986.909 
   33700    300.17146   -1257.1968    363.40723    458.18394    82.582691    37986.909 
   33800    298.00292   -1217.5546    370.58168    495.23341   -566.11981    37986.909 
   33900    296.84199   -1230.0874    370.62547     477.5156   -238.32566    37986.909 
   34000    302.00038   -1234.9102    381.92828    507.22904   -87.866699    37986.909 
   34100    302.55437   -1257.8494    361.32909    466.18577   -236.86502    37986.909 
   34200    308.11537   -1211.6375    393.86659    569.98198    96.401183    37986.909 
   34300    311.56951   -1196.8235    376.44217    582.92901    162.81971    37986.909 
   34400    297.31242    -1235.055    368.95286    472.99417    483.24902    37986.909 
   34500    296.52005   -1245.3161    392.31774    482.52915    396.37095    37986.909 
   34600    291.36649   -1256.5092    341.30741    397.11407    599.24504    37986.909 
   34700    301.20133   -1259.6617    381.99552    478.94583    627.58762    37986.909 
   34800     298.5859   -1213.8756    363.02963     493.9861     315.2412    37986.909 
   34900    295.07491   -1254.4549    361.54677    436.11049    921.16393    37986.909 
   35000    303.85103   -1228.9366    364.70236    504.31201    538.90105    37986.909 
   35100    297.35409   -1254.8815    378.43503    462.83754    735.73997    37986.909 
   35200    306.42841   -1238.5644     361.7366    503.32693    380.98621    37986.909 
   35300    316.95138   -1273.3276    343.94919    498.17185    412.38473    37986.909 
   35400    302.40435    -1248.799    367.29086    480.52225     439.0099    37986.909 
   35500    300.70582   -1213.6447    381.81156    522.54705    24.406541    37986.909 
   35600      299.083   -1240.6148    371.54523    478.00149   -109.21607    37986.909 
   35700    294.34608   -1243.6781    388.72891    470.78668    -738.5209    37986.909 
   35800    297.82281   -1181.8459    378.68079    538.22999   -356.82671    37986.909 
   35900    299.99635    -1216.315     388.7257    523.59542    226.83672    37986.909 
   36000    311.59671   -1250.1185    386.63008    539.94441    533.31453    37986.909 
   36100    304.94461   -1208.0591      383.866    549.27865    1186.1153    37986.909 
   36200    299.88612   -1244.4667    400.79838    507.01994     458.7343    37986.909 
   36300    298.16476   -1237.3107    350.45637      456.081    543.61194    37986.909 
   36400    300.02555   -1226.5638    365.46299    490.21542   -449.30272    37986.909 
   36500    290.71035   -1220.1071    401.09256    490.34599   -484.42945    37986.909 
   36600    312.83914   -1214.7742    362.04567    556.30018    383.74545    37986.909 
   36700    306.19253   -1230.4033    371.12127    519.81038    254.29668    37986.909 
   36800    294.65391   -1229.5036    374.60004     472.2188    270.58418    37986.909 
   36900    298.29099   -1194.0451    384.04096    533.49966    610.25761    37986.909 
   37000    293.88546    -1226.636    390.09786    487.12311   -167.56702    37986.909 
   37100    297.59214   -1235.2763    369.57913    474.65902    62.281515    37986.909 
   37200    308.06225   -1194.1819    408.97753     602.3092   -56.839478    37986.909 
   37300    298.16747    -1188.331    369.14023     523.7567    174.08079    37986.909 
   37400    294.43387   -1219.3012    354.62768    461.45779   -338.56629    37986.909 
   37500    303.83577   -1265.0464    359.64548    463.07659   -381.50689    37986.909 
   37600    300.40133   -1241.0341    371.00248    482.97714   -58.639442    37986.909 
   37700    292.14766   -1236.3977    384.72538    464.16185   -442.22797    37986.909 
   37800    298.31318   -1212.9313    372.01482    502.68723   -165.81611    37986.909 
   37900    307.45273   -1237.6557     364.5461    511.65873   -588.41724    37986.909 
   38000    293.63453   -1229.7996    389.32157    482.05307   -182.39811    37986.909 
   38100    294.93724   -1225.4139    369.97339    472.95796   -154.12122    37986.909 
   38200    301.26649   -1208.3559    399.78849    548.33807   -492.53266    37986.909 
   38300    300.12089   -1195.5312     374.9407    531.15523    -603.0557    37986.909 
   38400    303.30528   -1226.5985    381.08456    520.57421   -881.66817    37986.909 
   38500    303.43952    -1214.497    368.35731    520.55312   -597.44519    37986.909 
   38600    304.10259   -1268.8409    361.80443    462.64282     3.899066    37986.909 
   38700    316.57155   -1242.0495    385.34691    569.13698   -164.24476    37986.909 
   38800    296.73406   -1237.0958    378.66043    478.05601   -157.43753    37986.909 
   38900    298.46251   -1241.4581    388.23196    491.05016    -593.7979    37986.909 
   39000    299.96221   -1228.7566    391.26479    513.53914   -1062.2843    37986.909 
   39100     289.8553   -1238.4531    364.04658    431.10293   -587.47191    37986.909 
   39200    305.92637   -1251.8996     399.5513    525.54527   -857.17372    37986.909 
   39300    303.90855   -1259.2173    372.20428    481.79234    7.7592179    37986.909 
   39400      306.762   -1268.5857    396.74746    509.81897   -499.21636    37986.909 
   39500    305.28666   -1266.4279    361.63032    470.21473   -91.548589    37986.909 
   39600    300.50951   -1315.2461     352.9697    391.21965    124.61104    37986.909 
   39700    311.38925   -1239.5413    380.92251    543.87959    725.91577    37986.909 
   39800    298.91233   -1235.6109    378.43679     489.1282    390.66175    37986.909 
   39900    300.53834   -1282.0026    370.58538    442.20872   -18.464441    37986.909 
   40000    296.93446   -1278.8637     366.7297    425.25997    692.07974    37986.909 
   40100    295.19231   -1265.6175    369.75694    433.68678    648.32247    37986.909 
   40200    296.56381   -1282.2548    371.38349    424.85324    366.14985    37986.909 
   40300    296.50553   -1290.3172    359.88129    405.02615    592.49859    37986.909 
   40400    292.57509   -1291.2213    386.05957    412.59759    32.840346    37986.909 
   40500    302.40108   -1271.1303     381.7155    472.60085    251.86354    37986.909 
   40600    303.92092   -1241.0475    383.79082    511.60431     82.80447    37986.909 
   40700    299.52294   -1229.9103    374.50177    493.64393   -196.36544    37986.909 
   40800     294.1114    -1289.184    388.53778    424.03275    16.616515    37986.909 
   40900    303.01244   -1287.7246    379.12883    456.17344    34.479661    37986.909 
   41000    307.55208   -1269.3817    380.06618    495.90029    372.93606    37986.909 
   41100    297.80952   -1272.9334    376.21042    444.61231    325.86204    37986.909 
   41200    294.84596   -1283.6868    356.36025    400.66087     99.26279    37986.909 
   41300    300.13594   -1279.9333    365.62631    437.50652    120.16049    37986.909 
   41400    284.97924   -1257.3622     389.4562    415.64169   -160.69653    37986.909 
   41500    308.08258   -1276.3319    363.51146    474.78477   -164.81895    37986.909 
   41600    299.68066   -1276.7473    377.92537    450.94097   -378.17573    37986.909 
   41700    298.30792    -1236.823    378.28134    485.03841    312.54051    37986.909 
   41800    305.22154   -1229.1568    379.00434    524.56662     377.9664    37986.909 
   41900    312.22744    -1268.852    412.63974    550.06139     456.6574    37986.909 
   42000    304.41083   -1237.6068    379.62117    513.08199     557.8727    37986.909 
   42100    302.86127   -1239.8759    406.40321    530.61571    604.86258    37986.909 
   42200    307.61976   -1262.4902    383.23831    506.26872   -157.24285    37986.909 
   42300    293.25155   -1270.4977    369.69822     420.0067    5.8819254    37986.909 
   42400    300.47996   -1304.1652    378.72085    427.91855   -472.53128    37986.909 
   42500    295.70594   -1276.1029    401.76001    457.51782   -245.24585    37986.909 
   42600    300.11895   -1272.9099    402.38238    481.20945   -354.37389    37986.909 
   42700    305.17197    -1253.249    372.72804    493.97486    27.426218    37986.909 
   42800    299.22377    -1262.901    392.62055    477.42457   0.26514923    37986.909 
   42900    290.51986   -1239.4806    397.58087    466.60283   -321.45357    37986.909 
   43000    295.15614    -1248.979    386.09096    466.49637    -473.3363    37986.909 
   43100    302.65098   -1267.4099    384.95058     480.6819   -223.65171    37986.909 
   43200    293.15027   -1245.1294     401.1188    476.33935   -129.64192    37986.909 
   43300    301.70121   -1245.1817    389.48115    503.16289    -1070.294    37986.909 
   43400    301.29805   -1210.7806    409.67137     555.9384   -235.18889    37986.909 
   43500    308.72362   -1256.8396    396.66211    530.31496   -138.46952    37986.909 
   43600    293.80932   -1269.9987    394.24914     447.5688   -370.94329    37986.909 
   43700    296.28616   -1199.0404    389.18555     524.6192   -53.135415    37986.909 
   43800    306.26013   -1179.9946    381.35199    580.75422   -242.53396    37986.909 
   43900    301.45452     -1225.61    386.04433     518.1867   -521.67226    37986.909 
   44000    290.71556   -1232.7119    393.14048    469.81265    37.090555    37986.909 
   44100    289.33619   -1245.3955    394.36633    452.14215    88.479647    37986.909 
   44200    297.51939   -1266.3451     385.9826    459.66599    428.13837    37986.909 
   44300      292.824      -1248.3    409.91949    480.49998    391.31042    37986.909 
   44400    296.19048   -1245.5149     392.0868    480.61497    213.64267    37986.909 
   44500    309.98965   -1255.6774     390.7744    531.29161    808.69758    37986.909 
   44600    313.63513   -1255.1818    392.07627    549.50838     619.2011    37986.909 
   44700    301.44978   -1240.4914    418.23954    535.47915     333.4179    37986.909 
   44800    301.91094   -1279.8968    400.83812    480.74943    725.25691    37986.909 
   44900    306.11362   -1289.2658    408.87694    498.34808    844.95993    37986.909 
   45000    296.14167   -1289.7467    396.93277    441.00931    764.97599    37986.909 
   45100    303.00391   -1294.3886    416.85699    487.19917    773.45599    37986.909 
   45200    307.41239   -1255.4593      404.548    533.67533    364.68052    37986.909 
   45300     302.6042   -1218.5472     402.3905    546.77382     205.9901    37986.909 
   45400    301.22169   -1269.0351    409.52398    497.19255    25.643229    37986.909 
   45500    303.79016    -1257.218    392.73037    503.78453   -5.7611341    37986.909 
   45600    310.71542    -1280.436    394.40002    513.42746   -101.39176    37986.909 
   45700    301.65009   -1274.9024    395.97553     479.7063   -148.80784    37986.909 
   45800    306.27704   -1330.1281    375.35485     424.6997   -198.36978    37986.909 
   45900    297.86833   -1306.3955    393.24657    428.45122    96.653707    37986.909 
   46000    297.98899    -1308.506    383.51376    417.15138    -49.41216    37986.909 
   46100    295.58762   -1310.2394    390.34863    411.43709    271.69712    37986.909 
   46200    299.83046   -1284.0288    398.56778    464.97653   -60.473817    37986.909 
   46300    293.81831   -1323.6871    385.92044    385.59219   -387.60461    37986.909 
   46400    305.34905   -1289.9333    408.73378    494.09378    212.91315    37986.909 
   46500    298.73693   -1309.9493    421.27064    456.83364     128.2802    37986.909 
   46600    296.13536   -1272.4974    400.73887    462.03629    75.489111    37986.909 
   46700    288.09255   -1279.4796    396.79564    414.88607   -268.90842    37986.909 
   46800    305.55573   -1276.8905    405.15932    504.49302    366.78446    37986.909 
   46900    300.42915   -1286.5861    404.22935    470.77735    116.19008    37986.909 
   47000    293.55511   -1275.4928    390.91144    437.59205    47.138855    37986.909 
   47100    294.49565   -1263.6176    401.43983    464.23184    243.97889    37986.909 
   47200    296.28842   -1316.6852    410.03782    427.83683    166.39683    37986.909 
   47300    296.09319   -1319.2878    378.14738    392.46446    590.03161    37986.909 
   47400    299.85101   -1279.2228    393.97202    465.27935    49.127732    37986.909 
   47500       298.31   -1207.0682    416.70497    553.22619    255.23102    37986.909 
   47600     287.1536   -1265.8716    361.84349     389.3128    349.43709    37986.909 
   47700    287.77534   -1297.9965    408.89778    407.04255   -182.23832    37986.909 
   47800    310.92081   -1300.2451    405.01746    505.16091    493.69791    37986.909 
   47900    300.36281   -1308.0557    424.79557    469.57511    119.93353    37986.909 
   48000    314.37351   -1287.5418    398.77304    527.17081    729.69499    37986.909 
   48100    305.63786   -1315.2078    411.35891    472.74524    311.06714    37986.909 
   48200    304.16357   -1264.4661    424.45996    529.94776    302.45767    37986.909 
   48300    306.67626   -1300.3094    418.31878     499.2805    398.05298    37986.909 
   48400    302.66661   -1294.7584     425.1937    493.64693    18.158538    37986.909 
   48500    299.08046   -1343.2024    411.43308    415.29027    112.26506    37986.909 
   48600     301.4733   -1267.6683    420.24075    510.40932   -111.83492    37986.909 
   48700    306.95266   -1285.0683    394.82234    492.27009    156.16859    37986.909 
   48800    290.16701   -1280.8557    398.87441    424.93205    542.20594    37986.909 
   48900    301.79335   -1350.2246    424.07945    433.13329     493.8906    37986.909 
   49000     294.8078   -1323.1165    400.93298      405.632    236.29036    37986.909 
   49100    299.78359   -1356.3827    416.12936     409.9731   -79.077659    37986.909 
   49200    303.46089   -1343.1795    406.22383    429.83336   -16.648561    37986.909 
   49300    305.14292   -1340.1618    406.76994    440.97304     323.1081    37986.909 
   49400    306.31246   -1354.8081    431.58828    456.41269    42.205769    37986.909 
   49500    297.92421    -1348.978    403.98559    396.85938   -55.452679    37986.909 
   49600    314.66787   -1321.2195    427.30173    523.34756   -566.29083    37986.909 
   49700    291.77633   -1349.8873    398.39908    362.67356    -477.9882    37986.909 
   49800    300.76654   -1370.2893    404.38465    388.74911    -304.5616    37986.909 
   49900     303.0472   -1324.2272    394.61405    435.31261   -29.670573    37986.909 
   50000    305.25513   -1346.3628    399.67345    428.18099    -193.6045    37986.909 
   50100    292.57225   -1345.5694    395.82175    367.99894    -729.3997    37986.909 
   50200    295.92837   -1328.8995    415.39235    419.35542    128.36442    37986.909 
   50300    296.53033   -1408.5243    402.70638    329.75583    361.41557    37986.909 
   50400    305.18765   -1389.0951    377.48756    362.95884    654.87873    37986.909 
   50500    303.09898   -1383.0282    377.52688     359.6577    406.70588    37986.909 
   50600    290.87151   -1381.7285    412.88151    341.23943    418.41069    37986.909 
   50700     306.0968   -1350.8459    381.25075    409.06606    484.89481    37986.909 
   50800    288.49737    -1370.557    412.36553    341.20185   -352.84629    37986.909 
   50900    305.40174   -1364.3183     400.5488    411.76119    182.14011    37986.909 
   51000    306.80201   -1330.8325    431.46208    482.46705    153.29363    37986.909 
   51100    300.72114   -1331.5894    393.45093    416.31076   -333.62987    37986.909 
   51200    306.16059   -1306.0774    397.72237    470.59349    261.99679    37986.909 
   51300    301.44385   -1347.6765    427.06675    437.09457    311.26475    37986.909 
   51400    307.74861   -1339.8456    420.37211    466.62753    438.08752    37986.909 
   51500     306.0713   -1322.1998    398.64473    454.99131   -187.85582    37986.909 
   51600    302.80965   -1303.3431     412.8035    473.31629   -558.57732    37986.909 
   51700    304.43825   -1320.2228    385.22944    436.19769    159.43841    37986.909 
   51800     298.3852   -1319.4637    397.70116    422.16557    -630.2602    37986.909 
   51900     307.4872   -1307.2484    408.67219    486.34735   -354.58556    37986.909 
   52000    294.22848   -1332.0308     415.7746    408.95001   -226.78581    37986.909 
   52100    298.42929     -1368.33    403.54904    379.34572    256.48299    37986.909 
   52200    302.29511    -1372.237    408.67256    397.97393    732.79737    37986.909 
   52300    298.09054   -1403.5347    406.86301    345.92928    65.934994    37986.909 
   52400    298.39962   -1329.0701    404.05022    418.97317   -19.071507    37986.909 
   52500    297.75626   -1342.4197     394.3758    393.05145    530.33455    37986.909 
   52600    292.73434   -1370.4323    412.55953    360.60385   -26.510543    37986.909 
   52700    303.43829   -1291.7808    417.81866    492.72517    238.93997    37986.909 
   52800    290.66225   -1309.8249    425.68999    425.00899   -55.505392    37986.909 
   52900    309.22301   -1298.2458    422.49124    516.98706    372.66375    37986.909 
   53000      304.797   -1341.9982    411.33179    442.14047    70.952119    37986.909 
   53100    295.37551    -1334.206    404.19089    400.35734   -50.976668    37986.909 
   53200    296.94219   -1333.8885     414.9191    418.45945    39.241003    37986.909 
   53300    293.96535   -1333.5334    420.31597     410.8037   -231.83659    37986.909 
   53400    293.25624   -1358.8889    412.10151    374.03986   -383.92565    37986.909 
   53500     304.2453   -1358.4723    430.99362    442.84339   -758.87049    37986.909 
   53600    296.44247   -1298.4149    420.41526    457.17842   -564.23178    37986.909 
   53700    312.74092   -1316.7752    401.52967    493.34083   -530.83468    37986.909 
   53800    292.43193    -1338.632    410.34372    388.82628   -536.28559    37986.909 
   53900    292.37796   -1379.7577    409.59551    346.70933    26.868397    37986.909 
   54000    295.63234   -1365.8718    403.52964    369.18711    257.05564    37986.909 
   54100     300.0118   -1319.6623    412.60232    444.19435    586.52502    37986.909 
   54200    306.45975   -1300.9752    435.23047    514.55121    260.81931    37986.909 
   54300    304.47736   -1331.7707    401.43447    441.03104    288.28227    37986.909 
   54400    289.96571   -1304.4048    411.43112    413.03305    167.86752    37986.909 
   54500    296.55108   -1273.1991    421.36579    483.83396   -320.20604    37986.909 
   54600    293.03657   -1297.0252    395.56769    418.38039    47.707368    37986.909 
   54700    296.92876   -1310.3933    411.26408     438.2391   -826.27943    37986.909 
   54800    298.32281   -1307.0222    405.62932    442.25428    6.2114605    37986.909 
   54900    300.12459   -1335.2476    409.32422    425.83899   -43.519227    37986.909 
   55000    295.01502   -1288.0327     416.9014     457.6175    -214.0798    37986.909 
   55100    298.65726   -1302.6227    407.71558    450.24637     188.5363    37986.909 
   55200     288.2651    -1311.368     409.3674    396.34652   -93.423122    37986.909 
   55300    302.57781   -1317.3633    418.31058    463.75895     296.5698    37986.909 
   55400    301.21909   -1346.3472    409.95158    420.29634   -396.22507    37986.909 
   55500    305.88386   -1375.0693    411.59235    414.22518   -356.25349    37986.909 
   55600    298.77404   -1349.7218    406.25802    402.21571   -38.408962    37986.909 
   55700    306.79583   -1332.3616    394.83751    444.28556   -405.26023    37986.909 
   55800    295.40568   -1309.6205    410.96411    431.85201   -45.632332    37986.909 
   55900    300.15811   -1365.0035    400.78422    387.69408   -44.814383    37986.909 
   56000    288.46938   -1351.5663    394.95064    342.65162   -567.83267    37986.909 
   56100     297.9809   -1314.7601    393.14144    420.48851    235.89099    37986.909 
   56200    304.21468   -1341.2406    409.66745    438.61092   -58.801462    37986.909 
   56300    306.11298   -1351.2666    385.92482    413.39232    149.11893    37986.909 
   56400    302.99946   -1331.3949      407.907    441.22291    211.02679    37986.909 
   56500    306.58209   -1309.3851    406.41682    477.87872    280.08339    37986.909 
   56600    289.92969   -1273.2363    411.60082    444.20905    311.68069    37986.909 
   56700    296.93912   -1297.8025    405.33826    444.95077   -358.12511    37986.909 
   56800    304.81669   -1291.9117    412.13862    493.12254    424.10964    37986.909 
   56900    301.89543   -1323.9926    415.16678    450.91237   -1.9466377    37986.909 
   57000    306.95803   -1314.3408     430.3828    498.58224    95.568185    37986.909 
   57100    301.75218   -1276.0672    406.34768    489.37344    479.58654    37986.909 
   57200    303.98803   -1328.0855    420.91402    461.99181    28.156763    37986.909 
   57300    296.52121   -1321.8257    417.09833    430.80534    813.61263    37986.909 
   57400    317.76836   -1271.5944    428.24311    587.87872    699.82708    37986.909 
   57500    294.19581   -1272.3941    428.16083    480.82588    194.46567    37986.909 
   57600    309.62005   -1263.6087    424.13179    555.05306    448.79212    37986.909 
   57700    294.14157    -1272.928    438.31094    490.19775    158.50926    37986.909 
   57800    303.32705   -1277.9288    433.43839    521.69589    202.13532    37986.909 
   57900    299.64082   -1321.6908    432.02091    459.91357    232.91664    37986.909 
   58000     299.3845   -1331.0465    418.03938    435.42188    498.32938    37986.909 
   58100    304.05243   -1304.6353    435.35812    500.17616    663.49244    37986.909 
   58200    290.70127    -1333.825    436.33505    411.82973    635.04833    37986.909 
   58300    295.58985   -1316.2651    428.59246    443.66527    752.72687    37986.909 
   58400    298.41001   -1315.2036     431.5266    460.36289    228.38342    37986.909 
   58500    302.24598   -1350.7286    409.61042     420.1989    691.34046    37986.909 
   58600      300.835   -1320.5533    435.07977    469.48849    636.34928    37986.909 
   58700    306.66908    -1370.279    433.66147    444.62119    502.25384    37986.909 
   58800    300.20004   -1319.7634    454.11101     486.4498    811.56191    37986.909 
   58900    292.50665   -1348.3599    431.86969    400.96086    394.59328    37986.909 
   59000    306.10643   -1303.6453    418.67254    493.73176   -165.37165    37986.909 
   59100    294.75993   -1353.3911    434.77758    408.98641   -332.67774    37986.909 
   59200    289.48057   -1305.0297    431.37671    430.16867   -536.03625    37986.909 
   59300     287.0072    -1354.456    432.35767    370.58318    121.02713    37986.909 
   59400    311.46647   -1379.8791     431.6749    454.64207   -202.92554    37986.909 
   59500    308.46079   -1357.7656     415.6047    447.14768    126.71251    37986.909 
   59600    307.96931   -1341.4138    416.32658    462.00782   -75.402083    37986.909 
   59700    316.89763   -1370.0827    429.85025    487.07576   -500.83738    37986.909 
   59800    303.53299   -1342.7279    436.50765    460.89353    926.58066    37986.909 
   59900    305.75322   -1358.4339    428.36484    447.04459    68.306708    37986.909 
   60000     307.1388   -1349.4947    442.52283    476.38253    493.20586    37986.909 
   60100    297.08374   -1361.7462    428.97984        405.3      364.765    37986.909 
   60200    297.78797   -1329.8495    420.13777    431.52644    106.05489    37986.909 
   60300     293.2484   -1325.4545    454.30625     449.6437    436.88244    37986.909 
   60400    304.99723   -1339.4295    452.21054    486.48981    -224.3969    37986.909 
   60500    290.61687   -1332.8242    438.69589    414.81128   -446.22744    37986.909 
   60600    305.95526   -1344.9224    442.69851    475.79977   -598.41124    37986.909 
   60700    303.90158   -1382.0265    448.60452    435.35194   -383.09583    37986.909 
   60800    295.68257   -1338.2884    439.05856     432.5256    3.4003509    37986.909 
   60900    302.60384    -1357.824    442.82048    447.92535   -478.64552    37986.909 
   61000    298.55256   -1329.9883    441.19554    455.88921   -180.08538    37986.909 
   61100    303.90963   -1363.6657    431.56083     436.7053    301.76974    37986.909 
   61200    310.32559   -1372.1623    433.79365    459.33909   -266.09982    37986.909 
   61300    300.44028   -1337.8457    411.57234    426.91089   -124.28056    37986.909 
   61400    298.66725   -1307.8056    427.22452    464.61746   -186.33674    37986.909 
   61500    307.26075   -1302.2829     436.7686    518.38936    486.88224    37986.909 
   61600    305.51305   -1355.1736    441.56277    462.42118   -446.87527    37986.909 
   61700    302.78784   -1346.5233    455.74515    472.97942    -386.3641    37986.909 
   61800    303.71857   -1322.6147    399.57953    444.91447   -34.920786    37986.909 
   61900    310.80483   -1324.6012    449.13161    524.39661   -6.3482006    37986.909 
   62000    290.47551   -1294.9834    430.66645    443.98589    548.20469    37986.909 
   62100    295.52565   -1339.5567    440.81926     432.3113   -458.44482    37986.909 
   62200    306.62874   -1291.8322     476.3195    565.54434    272.13584    37986.909 
   62300      305.845    -1336.045    431.49524    472.97735   -641.45536    37986.909 
   62400    295.74335   -1322.6734    435.80165     445.1575   -570.16821    37986.909 
   62500    299.62121   -1297.2416    406.91461    459.16817   -211.73618    37986.909 
   62600    302.14233   -1350.1263    423.90598    434.62999   -378.46363    37986.909 
   62700    293.92885   -1367.9844    441.77731     397.6496    16.150579    37986.909 
   62800    313.18311   -1298.2272    435.08496    547.43577    627.56966    37986.909 
   62900    295.10257   -1290.6482    427.37923    465.87422    33.019021    37986.909 
   63000    298.99209   -1320.5809     416.9154    442.99604    20.677113    37986.909 
   63100    296.71359   -1311.2611    405.44487    430.58296   -803.17251    37986.909 
   63200      294.553   -1316.9556    424.06785    433.78011   -444.59458    37986.909 
   63300    305.48375   -1324.4658    420.21742    471.65165   -394.59366    37986.909 
   63400    308.50834   -1378.1598    435.19366    446.55662   -827.35605    37986.909 
   63500    294.28598   -1326.3839    432.00402    431.08537   -397.74196    37986.909 
   63600    304.08686   -1322.4285    448.36322    495.54313   -106.55896    37986.909 
   63700    293.43583   -1305.8314    417.40558    433.21039    308.75412    37986.909 
   63800    300.50682   -1333.1514     438.9283    459.26079    483.62139    37986.909 
   63900     289.0175   -1357.3349    442.50986    386.91093   -132.94915    37986.909 
   64000    293.12196   -1335.3289    444.45995    429.35353    588.68111    37986.909 
   64100    290.79968   -1347.0661    478.83109    441.52787    348.82411    37986.909 
   64200    298.70222   -1382.3327    418.73773    381.76104   -90.584955    37986.909 
   64300    302.12317   -1362.8631    415.33286    413.23365    577.60532    37986.909 
   64400     302.6516    -1344.747    424.33333    442.73033    326.23763    37986.909 
   64500    295.33213   -1326.1271    440.36749    444.41752    797.56774    37986.909 
   64600      299.657   -1363.2689     426.3974    412.78479    467.33356    37986.909 
   64700    291.32703   -1304.4635    445.10067    452.77526    666.84777    37986.909 
   64800    309.18005   -1343.3863    447.98561    497.14746    488.61145    37986.909 
   64900    304.57492   -1347.4614    448.98693    473.33215    300.16503    37986.909 
   65000    304.95949   -1376.5557    404.28352    401.26653     617.8411    37986.909 
   65100    293.85042   -1365.8319    428.29664    385.96827    377.35035    37986.909 
   65200    300.78925    -1349.564    424.85536     430.0474     479.8411    37986.909 
   65300    295.45337   -1331.8137    438.24239    437.15179    453.63696    37986.909 
   65400    294.22092   -1334.6487     427.8056    418.32908   -28.403293    37986.909 
   65500    293.55172   -1308.0991    442.73785    456.79686   -230.06111    37986.909 
   65600    296.34668   -1369.8783    434.10056     398.9689   -280.58141    37986.909 
   65700    305.91894   -1328.7958    435.58079    484.64512    130.93498    37986.909 
   65800    301.20605   -1332.9222    449.43325    473.14427    30.882366    37986.909 
   65900     306.0757   -1318.9625    451.14993    510.75366    29.529908    37986.909 
   66000    308.15199   -1333.2241    422.10202    476.79572  -0.75931863    37986.909 
   66100     296.3983   -1368.4467    428.11055    394.64296   -418.02076    37986.909 
   66200    291.83276   -1361.1168    447.58188    400.88103    201.06508    37986.909 
   66300    308.60478   -1384.5425    435.43657    440.85125   -70.736317    37986.909 
   66400    299.34542   -1354.6905    427.59891    421.16133   -455.05423    37986.909 
   66500    301.77414   -1356.0033    421.49879    424.68743    83.381903    37986.909 
   66600    312.66511   -1378.3972    426.78208    456.62978   -409.74227    37986.909 
   66700    298.20547   -1413.4553    443.43284    373.09611   -399.91484    37986.909 
   66800    292.16229   -1386.5427    436.91353    366.27096    43.067901    37986.909 
   66900    289.33854   -1390.9616    461.95504    374.17536   -522.66809    37986.909 
   67000    309.19654   -1372.2547    437.91506    458.28282    80.388358    37986.909 
   67100    306.79998   -1375.8363    423.17656    429.16862   -54.907389    37986.909 
   67200    295.75174   -1352.4926    424.96933    404.54378    643.05016    37986.909 
   67300    296.29184    -1388.744    414.20025    359.95585    196.87317    37986.909 
   67400    314.50661   -1373.2958     435.5286    478.77183    113.94272    37986.909 
   67500     302.9658   -1346.1927    414.38983    432.75636     559.7088    37986.909 
   67600    312.88002   -1409.0956     438.6287    438.74592    242.85289    37986.909 
   67700    298.63849   -1365.5262    447.33481    426.87752     175.5094    37986.909 
   67800    293.41588   -1384.8529    439.37832    376.07173   -185.97528    37986.909 
   67900    304.66986   -1341.2447    436.59856    467.58814   -470.55825    37986.909 
   68000    297.50137    -1343.635    411.10383    407.41625   -318.85446    37986.909 
   68100    300.72628   -1350.3624    439.17612    443.28603   -982.20373    37986.909 
   68200    295.30197   -1396.5399    427.44914    360.95046    268.40555    37986.909 
   68300    296.41128   -1337.8928    429.77378    426.91851    238.22378    37986.909 
   68400    305.64163   -1363.5418    446.55346    459.62282    46.066074    37986.909 
   68500    291.16217   -1340.1892    432.92767    404.13406   -103.31335    37986.909 
   68600    307.95043   -1354.4563     432.4733    465.02694    110.02368    37986.909 
   68700    298.17255   -1336.5894    425.81783    432.19884    648.08284    37986.909 
   68800     297.4567   -1313.6463    446.97208    473.07195    480.91996    37986.909 
   68900    310.35692   -1365.3775    450.60319    483.07448    774.10485    37986.909 
   69000     304.8405   -1287.5397    451.60041    537.06355    686.57415    37986.909 
   69100    298.98324   -1296.7886    452.84839    502.68152    257.31742    37986.909 
   69200    304.23756   -1294.2774     424.9805     500.9903    238.56164    37986.909 
   69300    295.55461   -1335.1633    429.08049    425.09634   -583.91959    37986.909 
   69400    296.92069   -1326.1841     447.5856    458.73342   -33.376787    37986.909 
   69500     292.6935   -1317.4077    424.66112    425.54609   0.66176786    37986.909 
   69600    296.90462    -1366.762    418.66371    389.16127   -573.13311    37986.909 
   69700    307.05425   -1347.7012      422.467    457.73939   -160.20457    37986.909 
   69800     302.6282   -1336.2352    425.06694    451.87035   -161.50694    37986.909 
   69900    294.90887   -1299.4979    450.17504    478.94782   -314.51651    37986.909 
   70000    295.71308   -1323.7908    433.02303    441.12512   -57.358811    37986.909 
   70100    303.70728   -1355.5786    431.00949     443.3297    32.504042    37986.909 
   70200     301.3577    -1332.203    426.58915    451.70247    335.59034    37986.909 
   70300      302.055   -1289.8131    416.72676     487.3706    911.22379    37986.909 
   70400    298.03888   -1360.7929    444.64071    426.21617    174.37495    37986.909 
   70500    305.85649   -1354.7536    419.33161    442.15687    944.02546    37986.909 
   70600    298.44805   -1347.8221    406.37747    402.76659    199.34558    37986.909 
   70700    306.27667   -1381.3269      446.293     444.4374    191.81164    37986.909 
   70800    313.55561   -1370.4989    420.92884    462.68565    506.36988    37986.909 
   70900    289.55495   -1332.0274    438.05182    410.18109   -81.526068    37986.909 
   71000    311.38621   -1339.1055    414.99847     478.3777   -247.61112    37986.909 
   71100    299.85317   -1371.6684    433.54948    412.42092   -513.85572    37986.909 
   71200    302.99519   -1336.2551    425.95168    454.38817    41.791868    37986.909 
   71300    291.33376   -1376.4103    429.34394    365.10208   -249.60723    37986.909 
   71400    300.46783   -1372.6144    423.83691    404.53085    109.57591    37986.909 
   71500    312.65286   -1393.5891    430.89803    445.49865   -5.9650035    37986.909 
   71600    307.77426    -1379.262     453.2623    460.21675   -326.48261    37986.909 
   71700    294.04557   -1353.2937    422.90764    393.99638    93.039662    37986.909 
   71800    296.93914   -1342.9612    411.18901    405.64289    79.591592    37986.909 
   71900    304.24095   -1391.9492    448.39521    426.74842    456.45502    37986.909 
   72000    299.85436   -1309.3026     455.9876    497.23022    629.80344    37986.909 
   72100    302.03344   -1381.3044    421.55431     400.6097    225.35467    37986.909 
   72200    294.03921   -1319.7492    422.04483    426.64938     148.5809    37986.909 
   72300    307.59372   -1332.4431    427.28066    480.24092    57.474124    37986.909 
   72400    303.33355   -1358.0448    436.82273    444.99339   -120.11526    37986.909 
   72500    293.79333   -1342.2384    411.20749    392.21544   -221.08488    37986.909 
   72600    305.14037   -1368.1972    441.26769    447.42395    118.27505    37986.909 
   72700    297.67666   -1307.5181    420.30918    453.52795    162.83562    37986.909 
   72800    305.19928   -1362.8381    443.21062    454.99128   -125.21084    37986.909 
   72900    293.57092   -1419.4223    429.04113    331.86342   -332.11114    37986.909 
   73000    294.10152    -1395.516    424.61416    353.73262    77.994873    37986.909 
   73100      298.735   -1370.2155    454.73357    430.02173    125.74432    37986.909 
   73200    300.30327   -1344.5764    425.49603    433.48675    110.52176    37986.909 
   73300    305.90162   -1363.2761    430.57996    445.08597   -399.84483    37986.909 
   73400    291.57577   -1396.2672     438.7094    355.70065   -728.42609    37986.909 
   73500     305.1616    -1372.251    398.56524    400.76332    268.05608    37986.909 
   73600    288.30139    -1358.613    449.44374    389.34135   -52.275135    37986.909 
   73700    302.66926   -1346.2351     461.9669    478.95539    10.378404    37986.909 
   73800    296.31288   -1401.1466    413.79279     347.2406    231.60565    37986.909 
   73900    303.08248   -1402.4005    409.99147     372.6757   -265.03664    37986.909 
   74000    294.21428   -1350.7579    415.49381    389.87819   -162.32189    37986.909 
   74100    312.37727   -1387.6936    428.50347    447.75829    317.11773    37986.909 
   74200    296.88619   -1364.9503    419.00639    391.23272     375.7044    37986.909 
   74300    310.18457   -1417.8143     413.1554     392.4136   -171.89665    37986.909 
   74400    288.40738   -1366.0978    454.34964    387.23982    369.29066    37986.909 
   74500    302.24391   -1286.2829    454.56022    529.58509    1193.4315    37986.909 
   74600    307.57559   -1337.6358    445.65243    493.33831    824.88888    37986.909 
   74700    295.26442    -1328.386    425.02636    426.51252     1297.481    37986.909 
   74800    295.94031   -1355.7927    427.08541     404.2091    926.67448    37986.909 
   74900    295.07351   -1394.4732    433.05557    367.59459    706.34178    37986.909 
   75000    315.25522   -1342.9666    425.57293    502.51704    631.73234    37986.909 
   75100    300.51968   -1329.5572    458.33768     482.3223    106.30993    37986.909 
   75200    289.53386   -1347.5404    431.25522    387.77649    83.863794    37986.909 
   75300    309.00255   -1324.7529    427.07974    494.07553    72.905625    37986.909 
   75400    291.29364   -1325.2474    444.42371    431.16403   -466.63834    37986.909 
   75500    285.49284    -1273.519     435.8536    448.19545   -70.114333    37986.909 
   75600    302.78544   -1366.4915    432.28268      429.538    2.1082279    37986.909 
   75700    289.81952   -1333.3024    420.75574    392.80161   -239.41951    37986.909 
   75800    302.47547   -1368.6819    451.38345    445.05223    -313.6201    37986.909 
   75900     293.1556   -1339.1063    447.33012    428.59782   -342.97277    37986.909 
   76000    310.94855   -1376.8507    424.14296    447.80579   -106.85639    37986.909 
   76100    294.60066   -1368.0684    426.60908    385.42325    506.37038    37986.909 
   76200     295.6314   -1376.4489    420.25368    375.32984    907.50054    37986.909 
   76300     301.6667   -1388.2665    435.00693    405.44844    891.38685    37986.909 
   76400    302.24241   -1373.9855    444.60597    431.92148     435.5243    37986.909 
   76500    300.66579    -1345.353    424.35049    433.19735    766.80901    37986.909 
   76600    298.72106   -1339.8373     430.2686    435.87215    396.69895    37986.909 
   76700    297.46486   -1334.6934    457.16522    462.25471   -30.668506    37986.909 
   76800    296.17118   -1325.0207    434.58813    443.52355   -382.01011    37986.909 
   76900    292.12084    -1382.195    425.98101    359.49939   -595.78094    37986.909 
   77000    309.28807   -1342.4425    434.69824    485.29038     85.69475    37986.909 
   77100    305.68745   -1379.6422    432.46777    429.64305   -596.62383    37986.909 
   77200    297.07963   -1376.2393    443.89517    405.70368    331.32892    37986.909 
   77300    295.50639   -1397.8616    433.88992    366.99034    133.50473    37986.909 
   77400    312.45743   -1393.9728      433.964    447.30064    185.43195    37986.909 
   77500    305.82937   -1387.6255     416.3153    406.14645    525.53876    37986.909 
   77600    299.39917   -1426.2492    413.46679    335.71258    183.14986    37986.909 
   77700     294.9121   -1394.4868    373.14097    306.93939    292.69054    37986.909 
   77800    303.69499   -1382.6799    420.56779    405.73131   -72.566022    37986.909 
   77900    304.23677   -1375.5668     440.3406    435.05748    201.96862    37986.909 
   78000    306.42117   -1356.2189    417.80503    441.70825    867.26086    37986.909 
   78100     308.1934   -1346.6156    427.73174    469.22042   -35.156755    37986.909 
   78200    297.12813   -1310.7306    394.46615    422.00185     195.0292    37986.909 
   78300    294.35862   -1379.5451    438.68946    384.93677    188.13517    37986.909 
   78400    300.72378   -1344.3947    452.42209    462.48855   -19.809352    37986.909 
   78500    301.12891    -1339.543    425.64041    442.38325    481.28078    37986.909 
   78600    291.61654   -1378.9065    427.95314    362.48865   -387.99026    37986.909 
   78700    297.82618   -1339.3496    435.85822    437.91887    157.56174    37986.909 
   78800     300.8551   -1397.1003    450.89423    408.84648     54.21614    37986.909 
   78900    305.21279   -1374.3047    426.42952    426.80442    280.77785    37986.909 
   79000    295.46274   -1355.9552    429.24852    404.05871    -151.8297    37986.909 
   79100    293.75967   -1338.8437    464.04386    448.29483   -133.29039    37986.909 
   79200    301.06488   -1352.1157    398.64952    402.53124    41.363256    37986.909 
   79300    305.77936   -1378.6156    411.44193    410.05777   -461.87762    37986.909 
   79400    294.91297   -1374.7579    433.15859    386.68988     39.87923    37986.909 
   79500    289.49797   -1374.0291    427.50432    357.37527    518.87427    37986.909 
   79600    294.41639   -1374.0399     447.4629    399.47557   -80.769629    37986.909 
   79700    305.66442   -1363.3487    411.05048     424.4155    29.197165    37986.909 
   79800    307.82233   -1337.8391    423.88993    472.48387   -461.01075    37986.909 
   79900    305.73365   -1339.0663    408.88326    446.84248   -499.52932    37986.909 
   80000    299.76196   -1350.5066    431.21761    430.84012    337.50648    37986.909 
   80100    312.17392   -1340.8183    430.03862    495.25293    255.79734    37986.909 
   80200    302.07875   -1369.3473    435.76567    426.98227    293.58061    37986.909 
   80300    308.48369   -1364.6939    428.26654    452.98435    126.48615    37986.909 
   80400    293.90718   -1357.8889    421.89504    387.76518   -210.56803    37986.909 
   80500    303.04928   -1325.3923    446.33092    485.87378   -486.20536    37986.909 
   80600    296.90361   -1296.4772    434.99631    475.77418   -619.68224    37986.909 
   80700     300.1837   -1301.0253    418.27917    469.28249    449.36774    37986.909 
   80800    300.12889    -1311.989     422.3172    462.10996   -179.87169    37986.909 
   80900    309.75608   -1307.4097    425.58405    513.31694    907.62859    37986.909 
   81000    303.00479   -1340.2999    438.09388    462.52883    61.911337    37986.909 
   81100    308.54813   -1352.6075    451.35764    488.45219    540.68005    37986.909 
   81200    294.70337   -1347.2592    430.78718    410.87316     755.9364    37986.909 
   81300    300.30629   -1337.5595    449.23691    464.25816   -67.212903    37986.909 
   81400    300.53276   -1366.6177     440.4197    427.40278    34.984282    37986.909 
   81500    308.31217   -1379.1635    436.23642    445.71215   -78.059227    37986.909 
   81600     294.4423   -1348.8655    435.77867    413.08242     388.9512    37986.909 
   81700    297.99391   -1343.9885    440.56817    438.74546    284.91422    37986.909 
   81800    295.92984   -1351.8157    478.22943     459.2829   -180.13486    37986.909 
   81900    300.71851   -1355.1021    436.43457    435.76987    566.86361    37986.909 
   82000    316.52561   -1358.8898    450.75346    517.49631    364.67414    37986.909 
   82100     295.9035   -1354.6352    440.77222    418.88758    205.93413    37986.909 
   82200    294.92157    -1374.488    417.70297    371.54285   -375.59442    37986.909 
   82300    307.52405    -1380.861    426.58123    430.80977   -562.85861    37986.909 
   82400    303.95927   -1358.8757    429.56166    439.71969    87.408186    37986.909 
   82500    292.40936   -1398.3365    450.34273    369.01916   -382.81764    37986.909 
   82600     290.1149   -1374.5392     431.3845    363.52397    -54.95439    37986.909 
   82700     297.3003   -1356.9657    436.19685    418.27289    226.24896    37986.909 
   82800    300.49614   -1381.3741    452.06125    424.12297     607.4165    37986.909 
   82900     299.8362   -1353.0331    411.41483    408.84515    833.23932    37986.909 
   83000    290.08192   -1407.5361    440.77476    339.76878   -191.70818    37986.909 
   83100    294.28677   -1383.4472    429.65138    371.67295    147.41214    37986.909 
   83200    301.52063   -1370.5683    415.94551    403.42729      862.014    37986.909 
   83300     309.8091   -1383.7723    443.34838    454.95753    352.41454    37986.909 
   83400    294.77677   -1394.1615    454.48831    388.00256    988.68095    37986.909 
   83500    292.17819   -1433.1053     461.0532    343.91961    382.63915    37986.909 
   83600    296.45684   -1367.5131     435.2523    402.98201    728.53799    37986.909 
   83700    302.25571   -1412.9294    421.26242    369.69396    112.52049    37986.909 
   83800    298.59109   -1383.1684    442.74981    404.43688    371.35625    37986.909 
   83900    308.26201   -1391.3027    398.92752    396.03815    516.86036    37986.909 
   84000     299.6981   -1393.3645    436.74325    393.22021   -495.05196    37986.909 
   84100    302.33198   -1393.2123    416.41977    384.91188    231.76128    37986.909 
   84200    300.75666   -1391.5845    422.00215    385.02685    267.26345    37986.909 
   84300    295.67206   -1352.1268    445.56849    425.14982      323.804    37986.909 
   84400    293.60366    -1415.539    426.23213    333.08517    496.06909    37986.909 
   84500    297.49433   -1411.8856    434.97061     363.0007   -106.26311    37986.909 
   84600    307.22202   -1385.9319    445.54736    443.34465    259.51507    37986.909 
   84700    296.38775   -1434.6708     427.9729    328.23364    92.232086    37986.909 
   84800    296.52599   -1437.1105    414.92816     313.3719     289.8397    37986.909 
   84900    300.12489   -1396.2446    426.51087    382.02995    182.94768    37986.909 
   85000    295.16497   -1409.6799    433.80622    353.55051    105.42068    37986.909 
   85100    305.12351   -1402.2149    421.91532    393.97791    47.015812    37986.909 
   85200    286.26847   -1414.8602    450.13669    324.63081   -196.34681    37986.909 
   85300    291.59368   -1384.4921     436.1029    364.94992    259.78736    37986.909 
   85400    297.89151    -1417.814    433.89338    357.78394   -13.338265    37986.909 
   85500    286.68958   -1415.6143    459.31755    334.95424   -318.21745    37986.909 
   85600    301.32808   -1378.5594    418.56126    397.18477    6.3565315    37986.909 
   85700    294.09518   -1367.7779    445.05054    401.87847   -247.91198    37986.909 
   85800    313.99772   -1367.8833    442.79632    489.15997    350.35226    37986.909 
   85900    294.56633   -1358.3544    433.72796    402.10148     -253.708    37986.909 
   86000    308.61095   -1351.4563    425.96756    464.49617    -264.5823    37986.909 
   86100    310.79099   -1320.7846    430.00485    509.02407    238.04234    37986.909 
   86200    299.08347   -1375.7473    444.02388    415.34974   -532.37214    37986.909 
   86300    304.94878   -1329.9595    457.39944    500.93046    63.306888    37986.909 
   86400    293.51759   -1343.3261    490.00266    468.68099   -425.71244    37986.909 
   86500    299.11803   -1352.8963    462.23828    456.57078   -200.87596    37986.909 
   86600    289.55579    -1384.401    442.25124    362.01066   -85.014804    37986.909 
   86700    294.38501   -1380.8715    456.68087    401.72062    -479.1763    37986.909 
   86800    302.85263   -1367.8584    424.77651    420.96756    193.44305    37986.909 
   86900    299.36555   -1409.0849     444.5044    383.76312   -200.13049    37986.909 
   87000    290.94883   -1426.5701    421.83214    305.69675   -53.923954    37986.909 
   87100    301.12184   -1419.0915    410.46636    347.62881   -338.39972    37986.909 
   87200     285.0627   -1383.9055    437.26778    337.28584   -1116.2303    37986.909 
   87300    283.64546   -1401.4193    434.32976    310.45073   -216.00554    37986.909 
   87400    296.62926   -1402.2515    452.41232    386.18018   -56.175978    37986.909 
   87500    299.92145   -1386.6675    436.54184    400.72179    700.71598    37986.909 
   87600    304.35497   -1409.4814    435.95812     397.2927   -68.617049    37986.909 
   87700    307.02255   -1398.5544    463.90827    448.18467    585.06049    37986.909 
   87800     307.6805   -1410.2239    437.04519    412.61548     1153.738    37986.909 
   87900    306.54481   -1423.0278    474.25698    431.90816    233.89319    37986.909 
   88000    297.54784   -1353.0169    419.35982    406.49953    520.21173    37986.909 
   88100    307.09664   -1363.4544    425.44962    445.15977   -5.7638918    37986.909 
   88200     311.7525   -1405.2658     420.7359    419.60457    250.47261    37986.909 
   88300    290.72509    -1372.194    413.97827    351.21129    -50.78186    37986.909 
   88400    309.95751   -1356.7165    441.73383     481.0672    195.44684    37986.909 
   88500    292.41897   -1364.9795    449.34336    401.42005    309.44254    37986.909 
   88600    298.92591   -1398.4318    448.99484    396.92654   -0.3683546    37986.909 
   88700    312.43994   -1370.9749    428.50079    464.75658    -385.1787    37986.909 
   88800    306.69665   -1350.6151    425.89112    456.63892   -178.32994    37986.909 
   88900    297.91684    -1403.911    447.89732    385.80495   -1.3541579    37986.909 
   89000    290.63906   -1369.0351    437.44765    377.45202   -64.566943    37986.909 
   89100    301.77041   -1361.1941    460.41449    458.39552   -185.53571    37986.909 
[...]
  984800    302.23464    -1470.756    521.27902    411.78907    178.91268    37986.909 
  984900    306.52233   -1466.1687    517.22838     431.6375   -170.76088    37986.909 
  985000    296.05917    -1465.551    487.76897    355.66965    128.34016    37986.909 
  985100    308.70959   -1433.8282    492.06094    448.66194    173.45777    37986.909 
  985200     291.1592   -1418.5542    500.09667    392.92464   -203.41626    37986.909 
  985300    296.58778   -1462.3903    505.33925    378.78145    90.624849    37986.909 
  985400    302.98115   -1459.3908    509.23561    414.47315   -7.1537178    37986.909 
  985500    303.24533   -1453.2997    486.17478     398.6932    112.63137    37986.909 
  985600    294.46145   -1417.6266    500.20161    408.83054    219.77261    37986.909 
  985700    288.26169   -1410.9502    515.34844    402.73001   -49.323608    37986.909 
  985800    309.59435   -1436.8683    513.91081    471.45666    93.872454    37986.909 
  985900    298.58887   -1443.8258    495.31888    396.33853   -232.46252    37986.909 
  986000    298.05424   -1452.5162    499.89859    389.81989   -418.55824    37986.909 
  986100    288.36453   -1439.2835    521.09003    380.60151   -297.28978    37986.909 
  986200    311.82904   -1418.5407    484.47754    470.41603    530.54598    37986.909 
  986300    296.66398   -1453.5367    543.51875    426.15777    573.03054    37986.909 
  986400    293.27446   -1481.0728    476.72646    316.56299    569.52773    37986.909 
  986500    294.70388   -1472.7528    494.93274    349.52744    502.41288    37986.909 
  986600    306.14207   -1479.9673    506.38246    405.28027    78.292659    37986.909 
  986700    295.29509   -1468.6676    494.11956    355.46219   -29.479841    37986.909 
  986800    297.21098   -1445.6347    500.80498     393.8097    16.131898    37986.909 
  986900    294.22027   -1436.1105    500.44476    389.50355   -97.533376    37986.909 
  987000    300.49078   -1432.8096    512.07559    432.67768    264.54605    37986.909 
  987100    297.06315   -1492.1666    486.23071     332.0377    342.59694    37986.909 
  987200    286.52037   -1500.3937    490.10814    280.20327    985.76388    37986.909 
  987300    298.29065   -1504.1057    498.26407    337.66062    900.56049    37986.909 
  987400    304.11231    -1506.599    499.91685    363.04093    1199.1428    37986.909 
  987500    299.65643   -1502.7803    520.40061    367.27411    246.66634    37986.909 
  987600    308.81779      -1468.4     486.4506     408.9671    534.95526    37986.909 
  987700    293.49638   -1466.7827    468.12354    323.24967     635.1908    37986.909 
  987800    296.69987    -1502.194    494.26705    328.41041    317.17644    37986.909 
  987900    304.91345   -1480.4618    503.18771    396.05731    412.63312    37986.909 
  988000    292.52044   -1459.7332    513.11236    370.89234    881.04484    37986.909 
  988100    306.23033   -1463.3054    510.46088    426.41815     355.7935    37986.909 
  988200    300.59139   -1459.0895    492.52221    387.29751   -616.44569    37986.909 
  988300    309.62471   -1495.4189    480.65356    379.78559   -463.68722    37986.909 
  988400     300.4889   -1451.6946    490.94556    392.65415   -657.50255    37986.909 
  988500    305.60961   -1454.7889    494.12404    415.80204   -64.139378    37986.909 
  988600    296.76088   -1496.8919    491.36405    331.08427   -368.60556    37986.909 
  988700    298.77773   -1530.8746    500.88976    315.71122   -177.65773    37986.909 
  988800    300.36331   -1489.0144    497.11864    360.94184    201.97727    37986.909 
  988900    301.94246   -1473.8754    493.44179    379.51647    254.33312    37986.909 
  989000    292.17066   -1465.6942    515.11746    365.36112   -250.82171    37986.909 
  989100    295.49514    -1431.713     514.5383    413.73658   -438.33391    37986.909 
  989200    301.66548   -1439.7154    490.64176    409.62892   -164.80544    37986.909 
  989300    294.21575   -1442.8669    499.35667    381.63867   -259.57518    37986.909 
  989400    287.38823   -1445.2625    499.85199    348.98721    55.406599    37986.909 
  989500     290.6589   -1480.7084    517.16623    345.58671    62.241254    37986.909 
  989600    298.77769   -1463.0441    507.11491    389.76671    284.80583    37986.909 
  989700    292.46618   -1467.0739    493.09281    343.28771    671.99382    37986.909 
  989800    305.06641   -1497.5408    495.41606    371.89558    274.04166    37986.909 
  989900    301.78488   -1499.8703     474.2188    333.58875    174.41235    37986.909 
  990000    309.25768   -1485.8607    495.28784    402.32495    791.41079    37986.909 
  990100    296.88412   -1478.8323    483.73563    342.07064    283.85389    37986.909 
  990200    300.36336   -1496.6874     489.2004    345.35079    210.30953    37986.909 
  990300    294.24685   -1444.9937     482.9118    363.20704   -188.80315    37986.909 
  990400     303.5438   -1477.9828    508.87803    398.05768    425.42901    37986.909 
  990500    290.47425   -1430.0389    487.81146     366.0697    121.68296    37986.909 
  990600    319.09817   -1441.2773    507.73808     503.6802    481.17826    37986.909 
  990700    299.15366   -1446.0874    528.43233    429.73419   -274.49423    37986.909 
  990800    308.41348    -1460.864    500.16879    428.40034   -331.25972    37986.909 
  990900    304.13504   -1410.5261    508.70285    468.00214   -407.20182    37986.909 
  991000     297.0334   -1457.2075    539.50205    420.13417   -14.041205    37986.909 
  991100    312.29328   -1443.5592    478.80994     441.8209    15.281157    37986.909 
  991200     294.7195   -1433.1439      522.894    417.16792   -175.81522    37986.909 
  991300    296.94205   -1480.7468    488.80326    345.48466   -270.75247    37986.909 
  991400    297.27135   -1453.9669    530.06094    415.00536   -388.33933    37986.909 
  991500    304.11436   -1442.2465    488.97438    416.46018    57.420983    37986.909 
  991600    292.17294    -1438.397     510.5598    388.11084   -143.16831    37986.909 
  991700    297.07739   -1432.8607    505.88382    411.06086   -283.02912    37986.909 
  991800    289.67827   -1449.8777    511.14892    365.98331   -100.54624    37986.909 
  991900    294.08248   -1463.0116    514.17711    375.71419   -338.01915    37986.909 
  992000    298.85073   -1478.6905     498.9987     366.3331   -406.51691    37986.909 
  992100    294.32631    -1425.054    533.47763    434.07057   -538.57836    37986.909 
  992200    298.34885   -1426.7288    520.30053    437.33613   -297.09011    37986.909 
  992300    293.23639    -1478.311    513.28564    355.71247   -29.070642    37986.909 
  992400    295.97147   -1520.8481    509.25413    321.46272   -352.39181    37986.909 
  992500    300.53802   -1474.8034    514.37591    393.19693   -518.12548    37986.909 
  992600    295.36357   -1459.2207    487.62653    358.72456    -135.7436    37986.909 
  992700     300.6379   -1472.3596     517.9996    399.71427    548.84175    37986.909 
  992800    308.00938   -1492.0849    514.29605    409.48663    1134.3033    37986.909 
  992900    294.62563   -1507.5174    495.28182    314.75946    784.78294    37986.909 
  993000     300.7819   -1472.9187    514.67592    396.48007    412.88945    37986.909 
  993100    296.09707   -1476.6173    501.89429    358.89943    401.21701    37986.909 
  993200    296.38331   -1461.6875    516.37718    389.60132    66.566849    37986.909 
  993300    292.72191   -1427.7878    507.19975     397.8326    398.43727    37986.909 
  993400    289.17226   -1457.7169    518.60024    363.31636    372.14797    37986.909 
  993500    297.26061   -1472.2504    498.16868    364.78125    418.66238    37986.909 
  993600    297.40013   -1467.8739    473.62845    345.24595    261.41456    37986.909 
  993700    302.49707   -1467.6101    514.29212    409.13008   -14.300978    37986.909 
  993800    294.90783   -1483.0085    515.31421    360.57177   -131.29613    37986.909 
  993900    297.19922   -1528.7413    469.99071    279.83593   -4.2709473    37986.909 
  994000    307.02484   -1466.9629    495.27289    411.15106    573.87024    37986.909 
  994100     299.3138   -1461.2388    483.69828    370.57009    232.35251    37986.909 
  994200    291.67097   -1448.8051    508.14271    373.02481   -779.94943    37986.909 
  994300    291.81142   -1427.4139    500.90954    387.81541   -581.06834    37986.909 
  994400    282.18149   -1449.3713    503.73344    325.30874   -613.11389    37986.909 
  994500    295.91684   -1458.2834    509.90726    384.43444   -858.51392    37986.909 
  994600    295.54897   -1484.4389    522.99044    369.70527   -53.317084    37986.909 
  994700    306.85071   -1461.5648    471.66846    392.16047    66.777041    37986.909 
  994800    301.69045   -1454.6071    486.07592    390.28381   -398.71518    37986.909 
  994900    305.06203   -1475.1092    487.28177    386.17314   -97.949114    37986.909 
  995000    302.42458   -1475.8323    474.47753    360.76671   -342.52805    37986.909 
  995100    298.35809   -1441.8957    540.30363    442.21395   -367.49719    37986.909 
  995200    300.12205   -1475.9494    486.35093    362.15241   -412.72576    37986.909 
  995300    295.34052   -1468.2164    485.62559    347.62406    -323.0578    37986.909 
  995400    293.70438   -1479.7408    525.70444    368.80931   -502.73692    37986.909 
  995500    295.87555   -1475.1018    499.04674     356.5696   -495.21517    37986.909 
  995600    314.65573    -1431.381    499.71776    485.54748   -399.53335    37986.909 
  995700    315.75974   -1507.9819     472.6017    386.80295   -613.85548    37986.909 
  995800    300.59024   -1461.3698    510.29568    402.78555   -48.641563    37986.909 
  995900    307.87281   -1474.1411      514.497     427.0163   -414.11882    37986.909 
  996000    293.16887    -1482.514    476.73831    314.65802   -276.18686    37986.909 
  996100    308.33833   -1468.5031    502.71045    422.96442   -234.13369    37986.909 
  996200    300.34533      -1465.4    512.15657    399.51312   -433.88067    37986.909 
  996300     296.0372   -1464.2489    501.86272    370.96655   -325.87293    37986.909 
  996400    316.74479   -1498.9875    486.94241    414.57468    279.40172    37986.909 
  996500    306.27005   -1439.9223    495.69008    435.20927    -107.7024    37986.909 
  996600     297.3878    -1437.635    492.43993    394.24071   -683.07672    37986.909 
  996700    304.19016   -1448.7075    519.63505    441.00127   -939.19365    37986.909 
  996800    311.07282   -1455.0433    498.71977     444.7497    17.055464    37986.909 
  996900    300.09966    -1500.834    505.31189    356.12792    59.627795    37986.909 
  997000    303.66941     -1543.85    488.14794    312.02615    541.19058    37986.909 
  997100    297.64471   -1471.5998    515.38122    384.37443    81.063648    37986.909 
  997200    293.33343    -1469.785    482.74458    334.13451   -746.18468    37986.909 
  997300    304.73981   -1468.0333    510.11214    414.62814    57.446035    37986.909 
  997400    307.43945   -1444.4503    484.36316    424.62141    -95.57697    37986.909 
  997500    310.96894   -1446.8241    485.28258    439.06382    350.06159    37986.909 
  997600    292.43593   -1460.1093    496.80177    353.82504    304.75156    37986.909 
  997700    299.81618   -1485.3771    509.60154    374.59771    229.84533    37986.909 
  997800    298.21626   -1422.5419    493.59032    414.21568    442.28997    37986.909 
  997900    299.43351   -1425.8497    506.77592    429.57594   -322.05102    37986.909 
  998000    300.31363   -1438.6084    497.72885    411.73425   -88.715607    37986.909 
  998100    295.53534   -1459.1369    496.52492     368.4803   -128.18574    37986.909 
  998200    300.55678   -1456.2464    496.13782    393.60035   -219.26589    37986.909 
  998300    299.41731   -1462.3006    486.51347    372.78961    14.364145    37986.909 
  998400    313.46174   -1469.4368    533.47951    475.87564    -678.8109    37986.909 
  998500    286.60883   -1471.6624    479.93968    299.16459    515.82668    37986.909 
  998600    306.70809   -1477.7286    508.61417        412.3   -24.737309    37986.909 
  998700    291.68258   -1426.5595    504.12467    391.30467     56.61909    37986.909 
  998800    307.14104   -1491.3934    484.15589    376.12692    356.14067    37986.909 
  998900    296.21001   -1484.2871    509.32869    359.17266   -94.208165    37986.909 
  999000       305.53   -1430.9789    516.74843    461.87782   -162.35481    37986.909 
  999100    303.24121   -1441.9235    504.68388    428.56001   -324.81504    37986.909 
  999200    302.33431   -1483.8254    501.05445    378.94396    216.90592    37986.909 
  999300    294.15726   -1494.9577    499.55508    329.48288     128.5714    37986.909 
  999400    302.94546   -1477.3793    513.48853    400.57678   -53.149838    37986.909 
  999500    301.55096   -1483.2871    465.66518    340.56481   -539.29154    37986.909 
  999600    308.41442   -1506.7605    514.36529    396.70456   -147.45782    37986.909 
  999700    309.70126   -1505.4537    486.55942    376.00141    264.62168    37986.909 
  999800     300.5502   -1502.2343    505.67158    357.11655   -188.08005    37986.909 
  999900    291.42946   -1482.0573    498.10899    328.65119   -177.07955    37986.909 
 1000000    300.45186   -1480.5012      519.601    392.33621    115.86146    37986.909 
 1000100    294.80136   -1485.7516    486.89552    328.93043    206.08412    37986.909 
 1000200    315.43781   -1492.9606    498.70639    426.47893    350.19852    37986.909 
 1000300     308.8092   -1505.4403    499.80523    385.24276     317.3975    37986.909 
 1000400    305.68189   -1434.3536    515.45951    457.89831   -118.21423    37986.909 
 1000500    302.74048    -1447.954    508.85695    424.44727      107.049    37986.909 
 1000600    301.01249   -1475.2866    528.56164    409.03647     238.2919    37986.909 
 1000700    297.30774   -1466.3141    505.52272    378.28391    702.01681    37986.909 
 1000800    302.27314   -1458.3652    500.15587     403.2301     259.4791    37986.909 
 1000900    300.53474   -1468.6328    504.44108    389.41795   -108.42467    37986.909 
 1001000     305.7883   -1460.1519    514.65319    431.77297    192.79352    37986.909 
 1001100    307.07528   -1489.4174    515.41991    409.07083    398.53384    37986.909 
 1001200    310.27234   -1444.9846     497.8804    450.36367    660.94569    37986.909 
 1001300    311.63451   -1469.7711    499.26466    433.09663    65.737529    37986.909 
 1001400    301.58879    -1476.175    494.97772    377.15982    274.54562    37986.909 
 1001500    297.48671   -1479.8265    508.59423    368.64905    388.32025    37986.909 
 1001600    302.72566   -1479.6379    497.14092     380.9806    323.30997    37986.909 
 1001700    287.53088   -1452.8705    498.61761    340.78732    377.70983    37986.909 
 1001800    298.35553   -1480.4237    491.06015    354.43097   -211.87998    37986.909 
 1001900    303.73909   -1467.1345    531.02298     431.9305    624.82035    37986.909 
 1002000    307.14003    -1500.021    504.96405    388.30301    461.67066    37986.909 
 1002100    288.82465   -1459.5463     504.6733    345.99438    58.302527    37986.909 
 1002200    301.88958    -1464.124    514.58679    410.17466    504.18553    37986.909 
 1002300    302.17436   -1509.3445    519.80202    371.45208    25.734548    37986.909 
 1002400     291.7447   -1438.6391    501.75892    377.13911    448.39601    37986.909 
 1002500     293.0334    -1491.804    483.84018    311.85978   -214.26296    37986.909 
 1002600    303.12988   -1435.6247    483.98139     413.6549    46.863286    37986.909 
 1002700     302.2363   -1462.9141    492.74517    391.10461    59.132815    37986.909 
 1002800    297.32208   -1456.7387    510.91712    393.31825    103.58391    37986.909 
 1002900     305.0711   -1469.7579    506.38169    410.66527   -292.12831    37986.909 
 1003000    301.52928   -1459.7626    491.52675    389.85326   -445.52784    37986.909 
 1003100    293.40996   -1431.7714    515.58914    405.33738    -373.9841    37986.909 
 1003200    287.02219   -1409.1724    511.39836    394.97503   -283.90374    37986.909 
 1003300    296.33166   -1437.1403    518.19393    415.73254    95.515335    37986.909 
 1003400    306.94248   -1388.2629    502.15438    496.36166    574.56959    37986.909 
 1003500    311.15422   -1435.9895     502.9059    468.35619     584.9744    37986.909 
 1003600    295.79849   -1385.7307    484.07211    430.61903   -61.440717    37986.909 
 1003700    296.68899   -1427.7745    501.58622    410.10012   -365.54578    37986.909 
 1003800    305.14719   -1443.8802    502.89971    433.40371    81.792573    37986.909 
 1003900    299.28202   -1476.1636    492.27944    364.08324   -143.30023    37986.909 
 1004000    301.91024   -1472.9976    514.77694    401.58428   -659.20991    37986.909 
 1004100    289.02199   -1446.8644    506.55093    361.44267   -449.23175    37986.909 
 1004200     304.1573   -1480.9865    479.97405    368.91329   -444.00272    37986.909 
 1004300    297.01921   -1552.5434    505.40495    290.63728   -103.99777    37986.909 
 1004400    306.17337   -1483.5138    436.03738    331.52969     -247.339    37986.909 
 1004500    293.45589   -1511.1322    478.78184    289.37614   -94.271282    37986.909 
 1004600    303.26645   -1513.0489    494.54747    347.41184    122.86177    37986.909 
 1004700    302.71845   -1456.3222    475.71861    382.84152   -4.3351804    37986.909 
 1004800    302.65703   -1444.9668    495.78974    413.99137    -245.6535    37986.909 
 1004900    301.12626   -1501.4003    463.98739    318.86096    181.60504    37986.909 
 1005000    296.75766   -1497.0806    500.82248    340.33961    267.94977    37986.909 
 1005100    306.94128   -1493.7825    473.98263    362.66488    922.20349    37986.909 
 1005200    303.11782   -1511.0768    483.83979     338.0069    575.40027    37986.909 
 1005300    308.39449    -1477.362    493.43993    405.08796    278.32257    37986.909 
 1005400    301.65825   -1502.3052    498.42775    354.79245    131.06121    37986.909 
 1005440    299.54057   -1500.2256    486.87848    335.78477   -627.11642    37986.909 
Loop time of 604.197 on 32 procs for 1000000 steps with 1512 atoms

Performance: 143.000 ns/day, 0.168 hours/ns, 1655.090 timesteps/s
100.0% CPU use with 32 MPI tasks x no OpenMP threads

MPI task timing breakdown:
Section |  min time  |  avg time  |  max time  |%varavg| %total
---------------------------------------------------------------
Pair    | 224.9      | 270.48     | 315.97     | 139.5 | 44.77
Bond    | 1.3956     | 1.5654     | 1.6876     |   5.5 |  0.26
Neigh   | 39.481     | 39.543     | 39.602     |   0.7 |  6.54
Comm    | 235.28     | 281.03     | 326.45     | 136.2 | 46.51
Output  | 0.38899    | 0.40495    | 0.85496    |  12.7 |  0.07
Modify  | 8.0248     | 8.4115     | 8.8306     |   9.4 |  1.39
Other   |            | 2.756      |            |       |  0.46

Nlocal:        47.2500 ave          67 max          13 min
Histogram: 1 0 2 2 2 5 8 5 2 5
Nghost:        1977.75 ave        2090 max        1862 min
Histogram: 1 4 8 2 1 1 3 5 6 1
Neighs:        5139.19 ave        8708 max        1077 min
Histogram: 1 1 5 4 2 7 2 6 3 1

Total # of neighbors = 164454
Ave neighs/atom = 108.76587
Ave special neighs/atom = 2.0238095
Neighbor list builds = 49622
Dangerous builds = 0

# Output the system volume
variable v equal vol
print 'The system volume is $v'
The system volume is 37986.9093703383

# Outputs
variable A equal xhi-xlo
variable B equal yhi-ylo
variable C equal zhi-zlo
variable D equal xy
variable E equal xz
variable F equal yz
print 'Lattice vectors'
Lattice vectors
print '$A 0 0'
33.6158930653875 0 0
print '$D $B 0'
0 33.6158930653875 0
print '$E $F $C'
0 0 33.6158930653875
Total wall time: 0:10:09
