LAMMPS data file
 1523 atoms
 1022 bonds
 539 angles
 52 dihedrals
 3 impropers
 7 atom types
 8 bond types
 4 angle types
 3 dihedral types
 1 improper types
 0 15 xlo xhi
 0 15 ylo yhi
 0 15 zlo zhi
 0 0 0 xy xz yz

# Atom types
#
# 1 O_2
# 2 C_2
# 3 N_2
# 4 C_3
# 5 H__HB
# 6 H_
# 7 O_3

# Bond Coeffs
#
# 1 O_2*C_2
# 2 C_2*N_2
# 3 C_2*C_3
# 4 N_2*H__HB
# 5 C_3*C_3
# 6 C_3*H_
# 7 N_2*C_3
# 8 O_3*H__HB

# Angle Coeffs
#
# 1 C_2
# 2 N_2
# 3 C_3
# 4 O_3

# Dihedral Coeffs
#
# 1 C1
# 2 B1
# 3 A1

# Inversion Coeffs
#
# 1 1

 Masses

 1 16
 2 12.01
 3 14.01
 4 12.01
 5 1.01
 6 1.01
 7 16

 Atoms # full

1 1 1 0 15.0136091615334 5.02579354569524 13.7049146956372
2 1 2 0 14.8619328015764 3.82094515524291 13.393707228094
3 1 3 0 15.3298071913767 3.2913150293724 12.2353681865611
4 1 4 0 14.1714995852705 2.9296650003422 14.3536531428734
5 1 4 0 12.847572758302 2.32684474588813 13.8078337701381
6 1 4 0 11.7512110231252 3.38554718403933 13.5031346183625
7 1 4 0 10.4258674175605 2.74679558621732 13.005234253361
8 1 4 0 9.30222155070288 3.77639109302082 12.730522644098
9 1 3 0 9.63038053101072 4.67018582203481 11.6138804471387
10 1 5 0 15.2273641201226 2.32962476010411 12.1526270653049
11 1 6 0 13.9539476374891 3.4679797310626 15.2812574608377
12 1 6 0 14.8512487722868 2.1127275426927 14.6096679140092
13 1 6 0 13.0577640557808 1.75019528401175 12.9025722186615
14 1 6 0 12.4627798720771 1.63006857800787 14.5579233825078
15 1 6 0 12.122648635487 4.07305718310439 12.7392307099365
16 1 6 0 11.5505348803395 3.96083474772724 14.4112991105018
17 1 6 0 10.0645186302868 2.04591106963688 13.7629577176628
18 1 6 0 10.6161427641798 2.18016617848689 12.0893970971132
19 1 6 0 9.11214384430251 4.37595528275465 13.623294651902
20 1 6 0 8.38385915773591 3.24362655071633 12.475325959858
21 1 5 0 8.83688966988433 5.30413931042106 11.4970259740886
22 1 5 0 10.4233629384726 5.24336062272956 11.9090071983905
23 1 5 0 15.9463022958114 3.90011616062901 11.188019486849
24 2 5 0 4.66023884408176 2.91993867763318 2.06969278980978
25 2 7 0 5.62023884408176 2.91993867763318 2.06969278980978
26 2 5 0 5.86023884408176 1.98993867763318 2.06969278980978
27 3 5 0 5.24470573917031 10.672014262937 8.86583080049604
28 3 7 0 6.20470573917031 10.672014262937 8.86583080049604
29 3 5 0 6.44470573917031 9.74201426293701 8.86583080049604
30 4 5 0 0.733482907963917 9.90422168205492 2.33132788329385
31 4 7 0 1.69348290796392 9.90422168205492 2.33132788329385
32 4 5 0 1.93348290796392 8.97422168205492 2.33132788329385
33 5 5 0 8.01804204748012 11.3359904596023 5.18507252214476
34 5 7 0 8.97804204748012 11.3359904596023 5.18507252214476
35 5 5 0 9.21804204748012 10.4059904596023 5.18507252214476
36 6 5 0 -0.111575488261878 8.98820470943116 11.8504030443728
37 6 7 0 0.848424511738122 8.98820470943116 11.8504030443728
38 6 5 0 1.08842451173812 8.05820470943116 11.8504030443728
39 7 5 0 4.31140250220895 11.3400744057167 4.12736104801297
40 7 7 0 5.27140250220895 11.3400744057167 4.12736104801297
41 7 5 0 5.51140250220895 10.4100744057167 4.12736104801297
42 8 5 0 9.10162798172794 7.28350143571384 8.8556634192355
43 8 7 0 10.0616279817279 7.28350143571384 8.8556634192355
44 8 5 0 10.3016279817279 6.35350143571384 8.8556634192355
45 9 5 0 12.7906767970137 2.39703670767136 11.7745595506858
46 9 7 0 13.7506767970137 2.39703670767136 11.7745595506858
47 9 5 0 13.9906767970137 1.46703670767136 11.7745595506858
48 10 5 0 7.33527057847939 0.781265049418435 12.452549203299
49 10 7 0 8.29527057847939 0.781265049418435 12.452549203299
50 10 5 0 8.53527057847939 -0.148734950581566 12.452549203299
51 11 5 0 12.8114715933055 10.043012248762 5.18889648956247
52 11 7 0 13.7714715933055 10.043012248762 5.18889648956247
53 11 5 0 14.0114715933055 9.11301224876195 5.18889648956247
54 12 5 0 -0.380178566118702 15.0894405766763 11.5800798044074
55 12 7 0 0.579821433881298 15.0894405766763 11.5800798044074
56 12 5 0 0.819821433881298 14.1594405766763 11.5800798044074
57 13 5 0 11.4591876945645 10.3688559336029 9.9224932200741
58 13 7 0 12.4191876945645 10.3688559336029 9.9224932200741
59 13 5 0 12.6591876945645 9.4388559336029 9.9224932200741
60 14 5 0 1.21432148080319 6.21126408496872 8.86131935287267
61 14 7 0 2.17432148080319 6.21126408496872 8.86131935287267
62 14 5 0 2.41432148080319 5.28126408496872 8.86131935287267
63 15 5 0 11.9704283382464 2.70436466363259 1.87477198429406
64 15 7 0 12.9304283382464 2.70436466363259 1.87477198429406
65 15 5 0 13.1704283382464 1.77436466363259 1.87477198429406
66 16 5 0 13.4173806225602 6.02644966839813 6.85123331146315
67 16 7 0 14.3773806225602 6.02644966839813 6.85123331146315
68 16 5 0 14.6173806225602 5.09644966839813 6.85123331146315
69 17 5 0 5.8314863957651 7.64640389982611 3.17899647750892
70 17 7 0 6.7914863957651 7.64640389982611 3.17899647750892
71 17 5 0 7.0314863957651 6.71640389982611 3.17899647750892
72 18 5 0 5.80486280305311 9.49491449439898 0.633022547699511
73 18 7 0 6.76486280305311 9.49491449439898 0.633022547699511
74 18 5 0 7.00486280305311 8.56491449439898 0.633022547699511
75 19 5 0 8.27757055216469 9.5526672601141 10.9793790592812
76 19 7 0 9.23757055216469 9.5526672601141 10.9793790592812
77 19 5 0 9.47757055216469 8.6226672601141 10.9793790592812
78 20 5 0 7.24478149015456 4.98064296943136 13.1272944831289
79 20 7 0 8.20478149015456 4.98064296943136 13.1272944831289
80 20 5 0 8.44478149015456 4.05064296943136 13.1272944831289
81 21 5 0 5.73279002026655 13.1219696048088 5.25703835883178
82 21 7 0 6.69279002026655 13.1219696048088 5.25703835883178
83 21 5 0 6.93279002026655 12.1919696048088 5.25703835883178
84 22 5 0 2.62019450820051 5.3560378290154 12.3690230387729
85 22 7 0 3.58019450820051 5.3560378290154 12.3690230387729
86 22 5 0 3.82019450820051 4.4260378290154 12.3690230387729
87 23 5 0 8.45757777264342 6.39621603460051 11.5834881307092
88 23 7 0 9.41757777264342 6.39621603460051 11.5834881307092
89 23 5 0 9.65757777264342 5.46621603460051 11.5834881307092
90 24 5 0 9.20847314919345 12.2563326409459 14.6790332417004
91 24 7 0 10.1684731491935 12.2563326409459 14.6790332417004
92 24 5 0 10.4084731491935 11.3263326409459 14.6790332417004
93 25 5 0 12.0079960562009 1.4812256714236 1.67383578023873
94 25 7 0 12.9679960562009 1.4812256714236 1.67383578023873
95 25 5 0 13.2079960562009 0.551225671423599 1.67383578023873
96 26 5 0 11.7914263384603 6.72743536922149 2.52129911910743
97 26 7 0 12.7514263384603 6.72743536922149 2.52129911910743
98 26 5 0 12.9914263384603 5.79743536922149 2.52129911910743
99 27 5 0 8.10909168256447 5.75055294478312 7.02073579304852
100 27 7 0 9.06909168256447 5.75055294478312 7.02073579304852
101 27 5 0 9.30909168256447 4.82055294478312 7.02073579304852
102 28 5 0 6.44363681713119 5.2274783390481 3.63563682069071
103 28 7 0 7.40363681713119 5.2274783390481 3.63563682069071
104 28 5 0 7.64363681713119 4.2974783390481 3.63563682069071
105 29 5 0 9.16508187350817 13.7963910148852 11.9905654492322
106 29 7 0 10.1250818735082 13.7963910148852 11.9905654492322
107 29 5 0 10.3650818735082 12.8663910148852 11.9905654492322
108 30 5 0 13.1756348213833 0.329170051673427 4.82002584147267
109 30 7 0 14.1356348213833 0.329170051673427 4.82002584147267
110 30 5 0 14.3756348213833 -0.600829948326573 4.82002584147267
111 31 5 0 13.3960793288145 5.79460284247994 0.49065952305682
112 31 7 0 14.3560793288145 5.79460284247994 0.49065952305682
113 31 5 0 14.5960793288145 4.86460284247994 0.49065952305682
114 32 5 0 -0.626178284436464 10.0077408824023 0.157050284324214
115 32 7 0 0.333821715563536 10.0077408824023 0.157050284324214
116 32 5 0 0.573821715563536 9.07774088240229 0.157050284324214
117 33 5 0 11.0650968567654 9.67475954251364 12.7269045927096
118 33 7 0 12.0250968567654 9.67475954251364 12.7269045927096
119 33 5 0 12.2650968567654 8.74475954251364 12.7269045927096
120 34 5 0 2.87350030892529 6.68174498289823 6.12126811291091
121 34 7 0 3.83350030892529 6.68174498289823 6.12126811291091
122 34 5 0 4.07350030892529 5.75174498289824 6.12126811291091
123 35 5 0 11.0998281421792 11.0114097739011 2.37999094999395
124 35 7 0 12.0598281421792 11.0114097739011 2.37999094999395
125 35 5 0 12.2998281421792 10.0814097739011 2.37999094999395
126 36 5 0 11.6989062276855 2.47097517637536 8.1423424417153
127 36 7 0 12.6589062276855 2.47097517637536 8.1423424417153
128 36 5 0 12.8989062276855 1.54097517637536 8.1423424417153
129 37 5 0 0.228416698956862 14.7617839245964 14.0404350170866
130 37 7 0 1.18841669895686 14.7617839245964 14.0404350170866
131 37 5 0 1.42841669895686 13.8317839245964 14.0404350170866
132 38 5 0 12.3887691290304 9.96197885176167 11.2406134733465
133 38 7 0 13.3487691290304 9.96197885176167 11.2406134733465
134 38 5 0 13.5887691290304 9.03197885176167 11.2406134733465
135 39 5 0 11.2761417966988 5.56368509464897 12.9852234560531
136 39 7 0 12.2361417966988 5.56368509464897 12.9852234560531
137 39 5 0 12.4761417966988 4.63368509464897 12.9852234560531
138 40 5 0 3.45445956263691 10.8929313769937 3.16165749798529
139 40 7 0 4.41445956263691 10.8929313769937 3.16165749798529
140 40 5 0 4.65445956263691 9.96293137699366 3.16165749798529
141 41 5 0 10.2118628185429 6.23898360802792 0.853986369911581
142 41 7 0 11.1718628185429 6.23898360802792 0.853986369911581
143 41 5 0 11.4118628185429 5.30898360802792 0.853986369911581
144 42 5 0 -0.361461702995002 3.70123671525158 10.1915279345121
145 42 7 0 0.598538297004998 3.70123671525158 10.1915279345121
146 42 5 0 0.838538297004998 2.77123671525158 10.1915279345121
147 43 5 0 12.5309577507153 9.12506026140414 13.051250805147
148 43 7 0 13.4909577507153 9.12506026140414 13.051250805147
149 43 5 0 13.7309577507153 8.19506026140414 13.051250805147
150 44 5 0 -0.215181874372065 14.4938609089609 4.39501777058467
151 44 7 0 0.744818125627935 14.4938609089609 4.39501777058467
152 44 5 0 0.984818125627935 13.5638609089609 4.39501777058467
153 45 5 0 6.11543729363009 14.491748124538 4.97274333145469
154 45 7 0 7.07543729363009 14.491748124538 4.97274333145469
155 45 5 0 7.31543729363009 13.561748124538 4.97274333145469
156 46 5 0 10.5577703942265 4.81248500448652 6.51126545621082
157 46 7 0 11.5177703942265 4.81248500448652 6.51126545621082
158 46 5 0 11.7577703942265 3.88248500448652 6.51126545621082
159 47 5 0 13.0230145789403 12.0769258406386 2.16672822134569
160 47 7 0 13.9830145789403 12.0769258406386 2.16672822134569
161 47 5 0 14.2230145789403 11.1469258406386 2.16672822134569
162 48 5 0 4.9826060053613 7.94725595897995 8.01820048713125
163 48 7 0 5.9426060053613 7.94725595897995 8.01820048713125
164 48 5 0 6.1826060053613 7.01725595897995 8.01820048713125
165 49 5 0 11.2364737204928 5.31021881540306 6.93699923926033
166 49 7 0 12.1964737204928 5.31021881540306 6.93699923926033
167 49 5 0 12.4364737204928 4.38021881540306 6.93699923926033
168 50 5 0 3.25872585221194 2.31087655801326 8.8566931989044
169 50 7 0 4.21872585221194 2.31087655801326 8.8566931989044
170 50 5 0 4.45872585221194 1.38087655801326 8.8566931989044
171 51 5 0 2.54761549338698 4.12984451320022 7.96302318689413
172 51 7 0 3.50761549338698 4.12984451320022 7.96302318689413
173 51 5 0 3.74761549338698 3.19984451320022 7.96302318689413
174 52 5 0 9.39776673956774 5.98610567202792 8.60925532062538
175 52 7 0 10.3577667395677 5.98610567202792 8.60925532062538
176 52 5 0 10.5977667395677 5.05610567202792 8.60925532062538
177 53 5 0 2.81046035394073 5.56531728868373 4.41309670452029
178 53 7 0 3.77046035394073 5.56531728868373 4.41309670452029
179 53 5 0 4.01046035394073 4.63531728868373 4.41309670452029
180 54 5 0 7.99414036257193 9.28821015445516 7.84228390781209
181 54 7 0 8.95414036257193 9.28821015445516 7.84228390781209
182 54 5 0 9.19414036257193 8.35821015445516 7.84228390781209
183 55 5 0 10.2806216133479 9.97555843246169 4.30078394128941
184 55 7 0 11.2406216133479 9.97555843246169 4.30078394128941
185 55 5 0 11.4806216133479 9.04555843246169 4.30078394128941
186 56 5 0 0.196528932284564 0.721671914625913 8.46266852226108
187 56 7 0 1.15652893228456 0.721671914625913 8.46266852226108
188 56 5 0 1.39652893228456 -0.208328085374087 8.46266852226108
189 57 5 0 13.5318382205162 3.93085916567594 8.63384327036329
190 57 7 0 14.4918382205162 3.93085916567594 8.63384327036329
191 57 5 0 14.7318382205162 3.00085916567594 8.63384327036329
192 58 5 0 12.1725905318465 12.7979680562299 8.53276335401461
193 58 7 0 13.1325905318465 12.7979680562299 8.53276335401461
194 58 5 0 13.3725905318465 11.8679680562299 8.53276335401461
195 59 5 0 12.9813771850616 11.6094231691118 7.50611824798398
196 59 7 0 13.9413771850616 11.6094231691118 7.50611824798398
197 59 5 0 14.1813771850616 10.6794231691118 7.50611824798398
198 60 5 0 10.1549888464808 14.5815176159982 9.37040638178587
199 60 7 0 11.1149888464808 14.5815176159982 9.37040638178587
200 60 5 0 11.3549888464808 13.6515176159982 9.37040638178587
201 61 5 0 10.1957241415232 14.3701378853899 2.56264825933613
202 61 7 0 11.1557241415232 14.3701378853899 2.56264825933613
203 61 5 0 11.3957241415232 13.4401378853899 2.56264825933613
204 62 5 0 5.44160683566704 6.67821535998024 9.36446473700926
205 62 7 0 6.40160683566704 6.67821535998024 9.36446473700926
206 62 5 0 6.64160683566704 5.74821535998024 9.36446473700926
207 63 5 0 8.90395212496631 14.5083769473154 9.94626933708787
208 63 7 0 9.86395212496631 14.5083769473154 9.94626933708787
209 63 5 0 10.1039521249663 13.5783769473154 9.94626933708787
210 64 5 0 5.56422797075473 10.2654443219677 6.10573875834234
211 64 7 0 6.52422797075473 10.2654443219677 6.10573875834234
212 64 5 0 6.76422797075473 9.33544432196766 6.10573875834234
213 65 5 0 4.55114369091578 12.535580442464 14.1916599590331
214 65 7 0 5.51114369091578 12.535580442464 14.1916599590331
215 65 5 0 5.75114369091578 11.605580442464 14.1916599590331
216 66 5 0 4.46103589885868 12.2117258146778 9.74398826016113
217 66 7 0 5.42103589885868 12.2117258146778 9.74398826016113
218 66 5 0 5.66103589885868 11.2817258146778 9.74398826016113
219 67 5 0 7.46377038929611 10.1148990755342 7.96171516296454
220 67 7 0 8.42377038929611 10.1148990755342 7.96171516296454
221 67 5 0 8.66377038929611 9.1848990755342 7.96171516296454
222 68 5 0 12.3836257348023 7.95591355691664 6.02824866771698
223 68 7 0 13.3436257348023 7.95591355691664 6.02824866771698
224 68 5 0 13.5836257348023 7.02591355691664 6.02824866771698
225 69 5 0 5.21469174345955 14.405838702051 10.8246647275519
226 69 7 0 6.17469174345955 14.405838702051 10.8246647275519
227 69 5 0 6.41469174345955 13.475838702051 10.8246647275519
228 70 5 0 4.87417718206532 12.9014395321161 14.8387556243688
229 70 7 0 5.83417718206532 12.9014395321161 14.8387556243688
230 70 5 0 6.07417718206532 11.9714395321161 14.8387556243688
231 71 5 0 11.4571515207365 2.50425614108332 9.80010612518527
232 71 7 0 12.4171515207365 2.50425614108332 9.80010612518527
233 71 5 0 12.6571515207365 1.57425614108331 9.80010612518527
234 72 5 0 11.6052183431759 5.14246721560135 1.9456025166437
235 72 7 0 12.5652183431759 5.14246721560135 1.9456025166437
236 72 5 0 12.8052183431759 4.21246721560135 1.9456025166437
237 73 5 0 3.45628661147319 2.15796034009196 11.0896317881998
238 73 7 0 4.41628661147319 2.15796034009196 11.0896317881998
239 73 5 0 4.65628661147319 1.22796034009196 11.0896317881998
240 74 5 0 8.33313776107505 5.85765908629633 4.07091477653012
241 74 7 0 9.29313776107505 5.85765908629633 4.07091477653012
242 74 5 0 9.53313776107505 4.92765908629633 4.07091477653012
243 75 5 0 1.99967972628772 13.4237354136445 14.6498800744303
244 75 7 0 2.95967972628772 13.4237354136445 14.6498800744303
245 75 5 0 3.19967972628772 12.4937354136445 14.6498800744303
246 76 5 0 1.86579840185121 4.02676812181249 0.443242824403569
247 76 7 0 2.82579840185121 4.02676812181249 0.443242824403569
248 76 5 0 3.06579840185121 3.09676812181249 0.443242824403569
249 77 5 0 5.97960058294237 12.8026266726106 8.91302855336107
250 77 7 0 6.93960058294237 12.8026266726106 8.91302855336107
251 77 5 0 7.17960058294237 11.8726266726106 8.91302855336107
252 78 5 0 8.05882288419641 3.38590157957748 3.40795284253545
253 78 7 0 9.01882288419642 3.38590157957748 3.40795284253545
254 78 5 0 9.25882288419642 2.45590157957748 3.40795284253545
255 79 5 0 2.73392646733671 0.488564548259601 11.4815907098819
256 79 7 0 3.69392646733671 0.488564548259601 11.4815907098819
257 79 5 0 3.93392646733671 -0.441435451740399 11.4815907098819
258 80 5 0 7.10703924458474 5.51082389935851 10.913022835739
259 80 7 0 8.06703924458474 5.51082389935851 10.913022835739
260 80 5 0 8.30703924458474 4.58082389935851 10.913022835739
261 81 5 0 10.6496949393488 11.0970869967155 9.43546014139429
262 81 7 0 11.6096949393488 11.0970869967155 9.43546014139429
263 81 5 0 11.8496949393488 10.1670869967155 9.43546014139429
264 82 5 0 12.3571893099882 8.22994624305517 11.9138294714503
265 82 7 0 13.3171893099882 8.22994624305517 11.9138294714503
266 82 5 0 13.5571893099882 7.29994624305516 11.9138294714503
267 83 5 0 13.4497504813783 4.6808058539778 1.03291286271997
268 83 7 0 14.4097504813783 4.6808058539778 1.03291286271997
269 83 5 0 14.6497504813783 3.7508058539778 1.03291286271997
270 84 5 0 5.84228434061632 2.55109107977711 10.9070665680338
271 84 7 0 6.80228434061632 2.55109107977711 10.9070665680338
272 84 5 0 7.04228434061632 1.62109107977711 10.9070665680338
273 85 5 0 7.79944745751098 2.97748172114603 9.88975588814355
274 85 7 0 8.75944745751098 2.97748172114603 9.88975588814355
275 85 5 0 8.99944745751098 2.04748172114603 9.88975588814355
276 86 5 0 5.30868412155658 14.1325464243442 5.0814614421688
277 86 7 0 6.26868412155658 14.1325464243442 5.0814614421688
278 86 5 0 6.50868412155658 13.2025464243442 5.0814614421688
279 87 5 0 -0.124071721946821 12.0399868178088 5.8201136731077
280 87 7 0 0.835928278053179 12.0399868178088 5.8201136731077
281 87 5 0 1.07592827805318 11.1099868178088 5.8201136731077
282 88 5 0 6.70415248998441 10.1035601766221 1.05621194117703
283 88 7 0 7.66415248998441 10.1035601766221 1.05621194117703
284 88 5 0 7.90415248998441 9.17356017662212 1.05621194117703
285 89 5 0 9.36600642671809 1.79510870174505 0.491745691979304
286 89 7 0 10.3260064267181 1.79510870174505 0.491745691979304
287 89 5 0 10.5660064267181 0.865108701745048 0.491745691979304
288 90 5 0 14.2414644830581 13.0200374095608 4.21382613480091
289 90 7 0 15.2014644830581 13.0200374095608 4.21382613480091
290 90 5 0 15.4414644830581 12.0900374095608 4.21382613480091
291 91 5 0 1.21678407697007 3.80104291060939 11.3087443064433
292 91 7 0 2.17678407697007 3.80104291060939 11.3087443064433
293 91 5 0 2.41678407697007 2.87104291060939 11.3087443064433
294 92 5 0 9.20715045344084 7.53923100693151 9.56495761522092
295 92 7 0 10.1671504534408 7.53923100693151 9.56495761522092
296 92 5 0 10.4071504534408 6.60923100693151 9.56495761522092
297 93 5 0 5.36688243781216 13.7619283485133 8.87226336286403
298 93 7 0 6.32688243781216 13.7619283485133 8.87226336286403
299 93 5 0 6.56688243781216 12.8319283485133 8.87226336286403
300 94 5 0 6.38868909722194 6.10813647666015 4.79906903696246
301 94 7 0 7.34868909722194 6.10813647666015 4.79906903696246
302 94 5 0 7.58868909722194 5.17813647666015 4.79906903696246
303 95 5 0 4.08840147240087 12.8360706618428 10.9371055767406
304 95 7 0 5.04840147240087 12.8360706618428 10.9371055767406
305 95 5 0 5.28840147240087 11.9060706618428 10.9371055767406
306 96 5 0 3.70173668998294 11.7055036574043 12.5401355652139
307 96 7 0 4.66173668998294 11.7055036574043 12.5401355652139
308 96 5 0 4.90173668998294 10.7755036574043 12.5401355652139
309 97 5 0 2.96150303489529 14.5435359577555 5.13263536733575
310 97 7 0 3.92150303489529 14.5435359577555 5.13263536733575
311 97 5 0 4.16150303489529 13.6135359577555 5.13263536733575
312 98 5 0 5.69948548145592 0.873214118592441 2.23137207445689
313 98 7 0 6.65948548145592 0.873214118592441 2.23137207445689
314 98 5 0 6.89948548145592 -0.056785881407559 2.23137207445689
315 99 5 0 2.67566084439866 4.8185758715868 0.232324018143117
316 99 7 0 3.63566084439866 4.8185758715868 0.232324018143117
317 99 5 0 3.87566084439866 3.8885758715868 0.232324018143117
318 100 5 0 5.81923249687068 3.74343498068862 13.7087856419384
319 100 7 0 6.77923249687068 3.74343498068862 13.7087856419384
320 100 5 0 7.01923249687068 2.81343498068862 13.7087856419384
321 101 5 0 0.841145335435867 5.45294423512183 3.0279715207871
322 101 7 0 1.80114533543587 5.45294423512183 3.0279715207871
323 101 5 0 2.04114533543587 4.52294423512183 3.0279715207871
324 102 5 0 12.6620299955551 0.828600950017572 7.99564474029467
325 102 7 0 13.6220299955551 0.828600950017572 7.99564474029467
326 102 5 0 13.8620299955551 -0.101399049982429 7.99564474029467
327 103 5 0 13.2364278814942 9.04954924987629 4.72889757016674
328 103 7 0 14.1964278814942 9.04954924987629 4.72889757016674
329 103 5 0 14.4364278814942 8.11954924987629 4.72889757016674
330 104 5 0 4.23781585690565 1.92118984804489 2.28421620558947
331 104 7 0 5.19781585690565 1.92118984804489 2.28421620558947
332 104 5 0 5.43781585690565 0.991189848044887 2.28421620558947
333 105 5 0 6.26282188503072 13.6452484949864 14.5176462759264
334 105 7 0 7.22282188503072 13.6452484949864 14.5176462759264
335 105 5 0 7.46282188503072 12.7152484949864 14.5176462759264
336 106 5 0 5.93801379829645 6.08649555169046 6.9656853703782
337 106 7 0 6.89801379829645 6.08649555169046 6.9656853703782
338 106 5 0 7.13801379829645 5.15649555169046 6.9656853703782
339 107 5 0 7.66007096084766 6.79904817411676 14.7828359599225
340 107 7 0 8.62007096084766 6.79904817411676 14.7828359599225
341 107 5 0 8.86007096084766 5.86904817411676 14.7828359599225
342 108 5 0 10.3157460135128 1.41961199505255 10.4211746505462
343 108 7 0 11.2757460135128 1.41961199505255 10.4211746505462
344 108 5 0 11.5157460135128 0.489611995052546 10.4211746505462
345 109 5 0 6.61522500959225 10.1217064486723 5.41420732042752
346 109 7 0 7.57522500959225 10.1217064486723 5.41420732042752
347 109 5 0 7.81522500959225 9.19170644867234 5.41420732042752
348 110 5 0 1.27925791821443 11.4016566604283 0.434775464236736
349 110 7 0 2.23925791821443 11.4016566604283 0.434775464236736
350 110 5 0 2.47925791821443 10.4716566604283 0.434775464236736
351 111 5 0 6.67246051758528 12.1374463387206 14.4786417984869
352 111 7 0 7.63246051758528 12.1374463387206 14.4786417984869
353 111 5 0 7.87246051758528 11.2074463387206 14.4786417984869
354 112 5 0 8.42423478185199 9.98452619224787 3.11542457202449
355 112 7 0 9.38423478185199 9.98452619224787 3.11542457202449
356 112 5 0 9.62423478185199 9.05452619224787 3.11542457202449
357 113 5 0 5.70886042711325 12.7470540503878 10.0202675687615
358 113 7 0 6.66886042711325 12.7470540503878 10.0202675687615
359 113 5 0 6.90886042711325 11.8170540503878 10.0202675687615
360 114 5 0 6.97073138711974 5.60026851872914 13.4941208933014
361 114 7 0 7.93073138711974 5.60026851872914 13.4941208933014
362 114 5 0 8.17073138711974 4.67026851872914 13.4941208933014
363 115 5 0 2.21495422694832 2.40140567341819 12.8015646978747
364 115 7 0 3.17495422694832 2.40140567341819 12.8015646978747
365 115 5 0 3.41495422694832 1.47140567341819 12.8015646978747
366 116 5 0 7.98551993488334 7.18685948912986 11.5989418281242
367 116 7 0 8.94551993488334 7.18685948912986 11.5989418281242
368 116 5 0 9.18551993488334 6.25685948912986 11.5989418281242
369 117 5 0 9.83495315697044 9.7991289784573 2.42982920841314
370 117 7 0 10.7949531569704 9.7991289784573 2.42982920841314
371 117 5 0 11.0349531569704 8.8691289784573 2.42982920841314
372 118 5 0 0.131472961949185 13.841597761903 10.7945955789182
373 118 7 0 1.09147296194918 13.841597761903 10.7945955789182
374 118 5 0 1.33147296194918 12.911597761903 10.7945955789182
375 119 5 0 11.5571940298844 12.1843300635833 12.6564416871406
376 119 7 0 12.5171940298844 12.1843300635833 12.6564416871406
377 119 5 0 12.7571940298844 11.2543300635833 12.6564416871406
378 120 5 0 2.7904783019051 6.98200505267829 7.74528120760806
379 120 7 0 3.7504783019051 6.98200505267829 7.74528120760806
380 120 5 0 3.9904783019051 6.05200505267829 7.74528120760806
381 121 5 0 4.66144320831634 1.88896012067795 7.09547074511647
382 121 7 0 5.62144320831634 1.88896012067795 7.09547074511647
383 121 5 0 5.86144320831634 0.958960120677948 7.09547074511647
384 122 5 0 3.51897610162385 9.18484031962231 9.08193489653058
385 122 7 0 4.47897610162385 9.18484031962231 9.08193489653058
386 122 5 0 4.71897610162385 8.25484031962231 9.08193489653058
387 123 5 0 7.63803182213567 4.00444985175505 1.95638404344209
388 123 7 0 8.59803182213567 4.00444985175505 1.95638404344209
389 123 5 0 8.83803182213567 3.07444985175505 1.95638404344209
390 124 5 0 3.51563184100203 4.59720698342659 10.3361669566948
391 124 7 0 4.47563184100203 4.59720698342659 10.3361669566948
392 124 5 0 4.71563184100203 3.66720698342659 10.3361669566948
393 125 5 0 13.274580314029 4.9375735378731 7.12008181493729
394 125 7 0 14.234580314029 4.9375735378731 7.12008181493729
395 125 5 0 14.474580314029 4.0075735378731 7.12008181493729
396 126 5 0 10.3200335944723 9.79714992729947 3.50002442719415
397 126 7 0 11.2800335944723 9.79714992729947 3.50002442719415
398 126 5 0 11.5200335944723 8.86714992729947 3.50002442719415
399 127 5 0 7.65351964786649 8.58465661219321 6.93092531408183
400 127 7 0 8.61351964786649 8.58465661219321 6.93092531408183
401 127 5 0 8.85351964786649 7.65465661219321 6.93092531408183
402 128 5 0 8.23383928203955 1.344058626974 6.22841881471686
403 128 7 0 9.19383928203955 1.344058626974 6.22841881471686
404 128 5 0 9.43383928203955 0.414058626974001 6.22841881471686
405 129 5 0 9.84928933714516 2.73866777000017 10.6662265746854
406 129 7 0 10.8092893371452 2.73866777000017 10.6662265746854
407 129 5 0 11.0492893371452 1.80866777000017 10.6662265746854
408 130 5 0 0.0221577314380557 13.6666492679529 12.0627920050174
409 130 7 0 0.982157731438056 13.6666492679529 12.0627920050174
410 130 5 0 1.22215773143806 12.7366492679529 12.0627920050174
411 131 5 0 9.94753055434674 10.4305897610635 2.59798967046663
412 131 7 0 10.9075305543467 10.4305897610635 2.59798967046663
413 131 5 0 11.1475305543467 9.50058976106346 2.59798967046663
414 132 5 0 5.3193379535526 10.8427129119542 2.64725640532561
415 132 7 0 6.2793379535526 10.8427129119542 2.64725640532561
416 132 5 0 6.5193379535526 9.91271291195415 2.64725640532561
417 133 5 0 7.24773190260865 1.87541382311843 2.0466705376748
418 133 7 0 8.20773190260865 1.87541382311843 2.0466705376748
419 133 5 0 8.44773190260865 0.945413823118433 2.0466705376748
420 134 5 0 8.96725657439791 4.29404594394378 13.1667322211433
421 134 7 0 9.92725657439791 4.29404594394378 13.1667322211433
422 134 5 0 10.1672565743979 3.36404594394378 13.1667322211433
423 135 5 0 10.7004879873432 5.05496932816692 6.26803574035875
424 135 7 0 11.6604879873432 5.05496932816692 6.26803574035875
425 135 5 0 11.9004879873432 4.12496932816692 6.26803574035875
426 136 5 0 9.38740249883383 12.4426693403535 3.80641622585244
427 136 7 0 10.3474024988338 12.4426693403535 3.80641622585244
428 136 5 0 10.5874024988338 11.5126693403535 3.80641622585244
429 137 5 0 0.744479168644175 12.0995720247179 10.2090007590596
430 137 7 0 1.70447916864417 12.0995720247179 10.2090007590596
431 137 5 0 1.94447916864417 11.1695720247179 10.2090007590596
432 138 5 0 5.19675786185078 6.36476774857379 1.5152583096642
433 138 7 0 6.15675786185078 6.36476774857379 1.5152583096642
434 138 5 0 6.39675786185078 5.43476774857379 1.5152583096642
435 139 5 0 10.4480562130641 7.24900634883903 13.7093657394871
436 139 7 0 11.4080562130641 7.24900634883903 13.7093657394871
437 139 5 0 11.6480562130641 6.31900634883903 13.7093657394871
438 140 5 0 3.24723865997046 3.05474660749547 1.23133811750449
439 140 7 0 4.20723865997046 3.05474660749547 1.23133811750449
440 140 5 0 4.44723865997046 2.12474660749547 1.23133811750449
441 141 5 0 13.2626614398044 10.6309940565284 13.0841844796669
442 141 7 0 14.2226614398044 10.6309940565284 13.0841844796669
443 141 5 0 14.4626614398044 9.70099405652843 13.0841844796669
444 142 5 0 10.1937557912618 14.5280148384068 6.64870294276625
445 142 7 0 11.1537557912618 14.5280148384068 6.64870294276625
446 142 5 0 11.3937557912618 13.5980148384068 6.64870294276625
447 143 5 0 9.83453242734075 14.5541554658581 5.25828711572103
448 143 7 0 10.7945324273407 14.5541554658581 5.25828711572103
449 143 5 0 11.0345324273407 13.6241554658581 5.25828711572103
450 144 5 0 11.570668169735 7.26455615525134 6.50783224962652
451 144 7 0 12.530668169735 7.26455615525134 6.50783224962652
452 144 5 0 12.770668169735 6.33455615525134 6.50783224962652
453 145 5 0 5.24961668226868 14.5713899719436 12.9718667815905
454 145 7 0 6.20961668226868 14.5713899719436 12.9718667815905
455 145 5 0 6.44961668226868 13.6413899719436 12.9718667815905
456 146 5 0 4.48392377860844 6.04791754897684 7.74132756865583
457 146 7 0 5.44392377860844 6.04791754897684 7.74132756865583
458 146 5 0 5.68392377860844 5.11791754897684 7.74132756865583
459 147 5 0 0.180958408601582 9.35242063174024 1.94749333080836
460 147 7 0 1.14095840860158 9.35242063174024 1.94749333080836
461 147 5 0 1.38095840860158 8.42242063174024 1.94749333080836
462 148 5 0 0.123523854855448 4.25378037424758 10.647435982246
463 148 7 0 1.08352385485545 4.25378037424758 10.647435982246
464 148 5 0 1.32352385485545 3.32378037424758 10.647435982246
465 149 5 0 3.55765915752389 2.02584142954089 12.6602096250281
466 149 7 0 4.51765915752389 2.02584142954089 12.6602096250281
467 149 5 0 4.75765915752389 1.09584142954089 12.6602096250281
468 150 5 0 2.24982668456621 2.34458603005856 2.4477745522745
469 150 7 0 3.20982668456621 2.34458603005856 2.4477745522745
470 150 5 0 3.44982668456622 1.41458603005856 2.4477745522745
471 151 5 0 8.3232721178513 6.24507218407467 0.189367847051471
472 151 7 0 9.2832721178513 6.24507218407467 0.189367847051471
473 151 5 0 9.5232721178513 5.31507218407467 0.189367847051471
474 152 5 0 2.82890845483169 13.1385052278079 8.931382301962