LAMMPS (29 Sep 2021 - Update 1)
Reading data file ...
  triclinic box = (0.0000000 0.0000000 0.0000000) to (15.000000 15.000000 15.000000) with tilt (0.0000000 0.0000000 0.0000000)
  2 by 4 by 4 MPI processor grid
  reading atoms ...
  1523 atoms
  scanning bonds ...
  3 = max bonds/atom
  scanning angles ...
  6 = max angles/atom
  scanning dihedrals ...
  10 = max dihedrals/atom
  scanning impropers ...
  1 = max impropers/atom
  reading bonds ...
  1022 bonds
  reading angles ...
  539 angles
  reading dihedrals ...
  52 dihedrals
  reading impropers ...
  3 impropers
Finding 1-2 1-3 1-4 neighbors ...
  special bond factors lj:    0        0        1       
  special bond factors coul:  0        0        1       
     4 = max # of 1-2 neighbors
     6 = max # of 1-3 neighbors
    10 = max # of special neighbors
  special bonds CPU = 0.002 seconds
  read_data CPU = 0.017 seconds
WARNING: Using 'neigh_modify every 1 delay 0 check yes' setting during minimization (../min.cpp:188)
Neighbor list info ...
  update every 1 steps, delay 0 steps, check yes
  max neighbors/atom: 10000, page size: 100000
  master list distance cutoff = 13
  ghost atom cutoff = 13
  binsize = 6.5, bins = 3 3 3
  3 neighbor lists, perpetual/occasional/extra = 3 0 0
  (1) pair hbond/dreiding/lj, perpetual, skip from (3)
      attributes: full, newton on
      pair build: skip
      stencil: none
      bin: none
  (2) pair lj/cut, perpetual, half/full from (3)
      attributes: half, newton on
      pair build: halffull/newton
      stencil: none
      bin: none
  (3) neighbor class addition, perpetual
      attributes: full, newton on
      pair build: full/bin
      stencil: full/bin/3d
      bin: standard
Setting up cg style minimization ...
  Unit style    : real
  Current step  : 0
WARNING: Energy due to 1 extra global DOFs will be included in minimizer energies
Per MPI rank memory allocation (min/avg/max) = 14.65 | 14.99 | 15.59 Mbytes
Step Temp E_pair E_mol TotEng Press Volume 
       0            0 1.6302522e+19    256.11937 1.6302522e+19 1.3248452e+21         3375 
    5427            0    -1071.939    62.003067   -1009.9359    98.294491    35515.542 
Loop time of 4.78745 on 32 procs for 5427 steps with 1523 atoms

99.9% CPU use with 32 MPI tasks x no OpenMP threads

Minimization stats:
  Stopping criterion = energy tolerance
  Energy initial, next-to-last, final = 
    1.6302522425603e+19  -1009.38538686839  -1009.46720042009
  Force two-norm initial, final = 4.8319129e+21 101.88492
  Force max component initial, final = 2.6586321e+21 68.990446
  Final line search alpha, max atom move = 1.2552585e-05 0.00086600844
  Iterations, force evaluations = 5427 5436

MPI task timing breakdown:
Section |  min time  |  avg time  |  max time  |%varavg| %total
---------------------------------------------------------------
Pair    | 1.2652     | 2.6627     | 4.0339     |  42.8 | 55.62
Bond    | 0.0061476  | 0.011987   | 0.037409   |   4.8 |  0.25
Neigh   | 0.099877   | 0.10023    | 0.10065    |   0.1 |  2.09
Comm    | 0.2863     | 1.6566     | 3.0579     |  54.3 | 34.60
Output  | 0          | 0          | 0          |   0.0 |  0.00
Modify  | 0          | 0          | 0          |   0.0 |  0.00
Other   |            | 0.3559     |            |       |  7.43

Nlocal:        47.5938 ave          65 max          27 min
Histogram: 3 3 3 2 1 2 9 4 0 5
Nghost:        2065.25 ave        2134 max        1988 min
Histogram: 5 3 5 3 0 0 1 3 5 7
Neighs:        5321.75 ave        8333 max        2988 min
Histogram: 5 4 3 0 4 7 4 2 2 1

Total # of neighbors = 170296
Ave neighs/atom = 111.81615
Ave special neighs/atom = 2.0499015
Neighbor list builds = 92
Dangerous builds = 0
1500 atoms in group WAT
23 atoms in group MOL
Neighbor list info ...
  update every 2 steps, delay 10 steps, check yes
  max neighbors/atom: 10000, page size: 100000
  master list distance cutoff = 13
  ghost atom cutoff = 13
  binsize = 6.5, bins = 6 6 6
  4 neighbor lists, perpetual/occasional/extra = 3 1 0
  (1) pair hbond/dreiding/lj, perpetual, skip from (4)
      attributes: full, newton on
      pair build: skip
      stencil: none
      bin: none
  (2) pair lj/cut, perpetual, half/full from (4)
      attributes: half, newton on
      pair build: halffull/newton
      stencil: none
      bin: none
  (3) compute group/group, occasional, copy from (2)
      attributes: half, newton on
      pair build: copy
      stencil: none
      bin: none
  (4) neighbor class addition, perpetual
      attributes: full, newton on
      pair build: full/bin
      stencil: full/bin/3d
      bin: standard
Setting up Verlet run ...
  Unit style    : real
  Current step  : 5427
  Time step     : 1
Per MPI rank memory allocation (min/avg/max) = 13.50 | 13.56 | 14.17 Mbytes
Step Temp E_pair E_mol TotEng Press Volume 
    5427          300    -1071.939    62.003067    351.10193    1850.0948    35515.542 
    5500    290.16543   -1117.4442    168.34839    367.32466   -20.714815    35515.542 
    5600    299.84304   -1228.9009    209.39164    340.81651   -757.85455    35515.542 
    5700    291.82813   -1155.8901    222.47289    390.54661   -319.81918    35515.542 
    5800     309.3777   -1152.9458    217.18315    467.81987   -715.70622    35515.542 
    5900    293.47513    -1143.137    202.54086    390.83974     -15.8976    35515.542 
    6000    294.56867   -1128.7393    215.03874    422.69655    57.103055    35515.542 
    6100    305.59572   -1121.4761    212.30844    477.25681    463.21286    35515.542 
    6200    306.33506   -1127.7023    199.53004    461.60646    567.96683    35515.542 
    6300    311.90069   -1163.5467    235.14013    486.62231    579.92156    35515.542 
    6400    300.73726   -1161.0395    214.95953    418.30268     756.6412    35515.542 
    6500    296.87014   -1186.1213    223.15911    383.87617    368.03159    35515.542 
    6600    296.23528   -1163.2905    227.67215    408.33976    1113.1825    35515.542 
    6700    311.23263   -1163.3321    225.08276    473.74863    673.37012    35515.542 
    6800    301.87995   -1159.3373    224.10056    434.33006    39.440696    35515.542 
    6900    297.06211    -1129.632    235.35552    453.43276     411.4225    35515.542 
    7000    304.66965   -1135.7213    229.24139    475.74319    486.15282    35515.542 
    7100    312.00626   -1153.0865    216.24261    478.66386    331.11008    35515.542 
    7200    299.26198   -1162.0327    237.34049    432.99744    236.25787    35515.542 
    7300    303.24878   -1159.9914    244.90916     460.6947    504.09302    35515.542 
    7400    306.43941   -1113.1371    237.47303    514.58809   -228.46175    35515.542 
    7500     302.8385   -1156.0294    227.49239    445.37857    539.96339    35515.542 
    7600    301.55714    -1142.343    244.04187    469.80111   -77.153676    35515.542 
    7700    298.77269   -1133.1652     231.3618    453.66641    268.11986    35515.542 
    7800    298.12967   -1156.2273    247.69545    444.02074    785.95115    35515.542 
    7900    296.34859   -1117.6273    245.00369    471.84858    189.12385    35515.542 
    8000    304.96314   -1145.2577     258.7538     497.0507    578.16107    35515.542 
    8100     311.6447   -1171.6225    236.56351    478.80849    366.10505    35515.542 
    8200     310.3973   -1156.2772    252.29121    504.22231    446.73373    35515.542 
    8300    297.92618   -1155.6478    250.32104    446.30266    662.62578    35515.542 
    8400    300.48656   -1195.7903    246.29776    413.75274    435.27111    35515.542 
    8500    304.81046   -1165.7393    244.21909    461.34169    365.88078    35515.542 
    8600     301.4245   -1162.2433    264.23689     469.4941    554.96002    35515.542 
    8700     289.7166   -1154.3957    254.03164     414.0201    282.59715    35515.542 
    8800    300.10695   -1166.7592    270.51126    465.27513    264.96954    35515.542 
    8900     296.9171   -1186.9602    258.22645    418.31762    298.23487    35515.542 
    9000    298.08745   -1217.3343    255.01844    390.04516    624.35618    35515.542 
    9100    299.95059   -1212.1921    256.78088    405.40246    547.10282    35515.542 
    9200    302.41398   -1226.3262    259.74593     405.4093    387.14128    35515.542 
    9300     297.6655    -1198.241    256.15154    408.35728   -32.620035    35515.542 
    9400    294.04455   -1180.7612    284.78278     438.0408     341.3842    35515.542 
    9500    296.78182    -1204.198    253.16034    395.40003    789.56287    35515.542 
    9600    302.78312   -1241.4878    261.00319    393.17969    1198.3904    35515.542 
    9700    293.97247   -1242.1197    259.51044    351.08298    1120.0943    35515.542 
    9800    289.97159   -1234.9763    256.05551     336.6203    505.04757    35515.542 
    9900    297.78201   -1187.9277     252.2516    415.29924    1060.0443    35515.542 
   10000    306.71952   -1212.8648    267.07739     445.7355    900.35839    35515.542 
   10100     293.9845    -1226.377    260.94527    368.31511    587.36321    35515.542 
   10200     296.2846   -1185.3017    274.94336    433.82351   -1.2589556    35515.542 
   10300    298.65952   -1161.8513    267.73072    460.83585    103.56522    35515.542 
   10400    294.46716   -1181.3298    256.01746    410.62422    4.8604114    35515.542 
   10500    295.55756   -1155.3143    258.13053    443.69965    10.750971    35515.542 
   10600    289.55887   -1163.4204    262.69311    412.94129    65.705284    35515.542 
   10700    295.20674   -1218.0039    270.48499    391.77292    449.91305    35515.542 
   10800    303.35256   -1187.7881     263.3754    451.83503    388.22161    35515.542 
   10900    302.38214   -1212.5808    281.47204    440.73637    184.37233    35515.542 
   11000    305.34802   -1219.0937    279.83709     446.0441    -163.6503    35515.542 
   11100    301.15665   -1220.7633    252.84176    398.36382   -142.20984    35515.542 
   11200    295.59107   -1219.3172    299.27574    420.99399  -0.79060592    35515.542 
   11300    297.50529   -1223.9203    271.57953    397.37907    91.371235    35515.542 
   11400    289.68521    -1231.936    280.68476    362.99051    457.22091    35515.542 
   11500    297.14674   -1238.8271    289.18354    398.44965    57.166074    35515.542 
   11600    308.32572   -1215.5912    285.28736    468.50612    -29.32032    35515.542 
   11700    314.56691   -1252.3069    291.67277    466.49075    7.4152477    35515.542 
   11800    307.29694   -1257.7598    275.52802    411.91078    144.64696    35515.542 
   11900    296.00777   -1218.4745    280.01521    404.46666    304.65263    35515.542 
   12000    304.34732    -1188.157    291.27328      483.877    228.50062    35515.542 
   12100    308.39431   -1183.0885    277.14378    493.17643     191.5572    35515.542 
   12200    310.61572    -1208.037    281.71625    482.87841    695.99498    35515.542 
   12300    299.73154   -1175.5528    309.68062    493.94776    346.85749    35515.542 
   12400    287.83202   -1176.8781    263.93719    392.89337    447.28245    35515.542 
   12500    294.66003   -1156.2987    292.54772    473.06052    459.87896    35515.542 
   12600    299.46742   -1169.8371    290.51128    479.29587    624.87558    35515.542 
   12700     287.8369   -1195.9639    283.67383    393.56629    671.13102    35515.542 
   12800    300.87739   -1184.4292    295.98256    476.57177    351.03305    35515.542 
   12900    313.04197   -1187.5321    278.43081    511.10534     329.7615    35515.542 
   13000    295.29662   -1202.4542    303.97697    441.22245   -8.7526588    35515.542 
   13100    288.82904   -1236.3142      274.247    348.29029    119.10287    35515.542 
   13200    306.79809   -1202.2731    277.09016    466.69645     238.6486    35515.542 
   13300    298.76721   -1202.7388    274.12725     426.8334    685.48474    35515.542 
   13400    296.92946   -1201.0015    294.28509    440.39107    346.63354    35515.542 
   13500    315.16728   -1201.2079    287.86182    516.50256    757.36072    35515.542 
   13600    295.06484   -1201.7389    299.91723     436.8264     457.5353    35515.542 
   13700    285.18073   -1206.9072    298.57932    385.47801     1000.095    35515.542 
   13800    298.96942   -1234.4406    294.61003    416.53178    917.23223    35515.542 
   13900    312.69019    -1219.255    303.07506    502.43071    517.48691    35515.542 
   14000    296.82172   -1185.6839    285.31762    446.25242    479.37016    35515.542 
   14100    296.80082   -1166.6349    289.36251    469.25142    112.99351    35515.542 
   14200    297.33934   -1194.1166    299.12608    453.97644   -98.122565    35515.542 
   14300    305.16957   -1145.0259    305.73261    545.19787    78.891024    35515.542 
   14400    302.74514   -1183.5164    282.20479    472.18041    225.54826    35515.542 
   14500    304.12704   -1196.8164    302.08721    485.03222   -444.71427    35515.542 
   14600    311.81725    -1240.174     297.6083    472.08458   -316.50273    35515.542 
   14700    296.85089   -1223.6183    299.87273    423.00541    -70.53793    35515.542 
   14800    303.63843   -1252.2359    290.81782    416.12656    154.12507    35515.542 
   14900     302.9453    -1235.902    283.46487     421.9629    278.64701    35515.542 
   15000    303.19925   -1274.5457    297.11892    398.12539    -20.95561    35515.542 
   15100    297.37732   -1226.4866    285.78987     408.4426    140.66946    35515.542 
   15200    302.76319   -1247.7603    312.71105    438.52462    481.11203    35515.542 
   15300    299.89107   -1228.2614    300.05997    432.34228    332.94058    35515.542 
   15400    296.97239   -1212.8592     294.2301    428.67311    211.08714    35515.542 
   15500    293.76224   -1220.7999    309.61043    421.54898    416.05903    35515.542 
   15600    311.09075   -1208.1476    318.13492    521.34164    237.49997    35515.542 
   15700    305.62574    -1235.945    317.35505     467.9707    549.62779    35515.542 
   15800    296.70236   -1204.8963    300.20265    441.38352    138.14582    35515.542 
   15900    294.64423    -1184.202    328.95709     481.4949   -270.33018    35515.542 
   16000    301.04714   -1217.2809    309.93007    458.43775    160.90634    35515.542 
   16100    303.20357   -1190.8938    313.73212    498.41008    158.25761    35515.542 
   16200    291.95152   -1219.9999    311.86855     416.3922    84.603259    35515.542 
   16300    293.89437    -1248.015    316.11698    401.43981    564.85804    35515.542 
   16400     307.6434   -1256.1738    331.46161    471.00217   -54.803309    35515.542 
   16500    294.52803   -1222.7005     308.0041    421.51624    144.59956    35515.542 
   16600    300.09272    -1226.267    319.43955    454.63105   -651.62385    35515.542 
   16700    287.46201   -1193.3949    322.21293    432.97363   -4.3566109    35515.542 
   16800    296.06017   -1243.6401    309.04236    408.56587   -733.72683    35515.542 
   16900      300.634   -1225.9695     312.2743    450.21902    -220.1058    35515.542 
   17000    312.73203   -1220.0009    318.11576    516.91527    590.71752    35515.542 
   17100    306.57967   -1255.6372    312.68398     447.9352    628.84817    35515.542 
   17200    300.21255    -1236.394    311.80639    437.41454     528.2788    35515.542 
   17300    298.35703   -1210.8114    334.71204    477.48475    288.12725    35515.542 
   17400    309.56538    -1228.883       320.29    495.84106    477.80602    35515.542 
   17500     300.4575   -1256.2756    332.65733     439.4952    125.85407    35515.542 
   17600    306.20528   -1241.9144    338.57709    485.85263    416.63836    35515.542 
   17700    296.96685   -1219.9317    324.95381    452.29919    996.02188    35515.542 
   17800      289.139   -1197.9801    335.90334      449.687    174.77073    35515.542 
   17900    294.77955   -1196.9566    336.85272    477.24992    485.34467    35515.542 
   18000    301.76542   -1165.2871    324.43976    528.19991   -60.948658    35515.542 
   18100    304.73882   -1196.5472    314.76759    500.75724    327.89553    35515.542 
   18200    295.47647   -1203.2675    313.29982     450.5479   -121.48049    35515.542 
   18300    299.74391   -1163.3098    337.75017    534.31645   -88.045875    35515.542 
   18400    308.48399    -1168.604    345.18146    576.10544    68.764691    35515.542 
   18500    304.19985   -1199.7077    362.06597    542.44995   -193.66527    35515.542 
   18600    294.40685   -1181.9563    293.35715    447.06374    236.63186    35515.542 
   18700    300.93823   -1228.1243    340.91284      478.083    162.12573    35515.542 
   18800    305.65012   -1173.1399    359.52962    573.06096   -232.49846    35515.542 
   18900    306.70961   -1174.2876    348.50438     565.6948   -82.651821    35515.542 
   19000     308.8141   -1151.4686    334.13614    583.69312   -41.437477    35515.542 
   19100    311.22843   -1192.7891    328.57133    547.76121    361.69716    35515.542 
   19200    304.55475   -1161.9422    342.16379    561.92339    652.53231    35515.542 
   19300    305.29701   -1175.2194    351.89502    561.74492    820.90335    35515.542 
   19400    290.71923    -1182.448    335.29674     471.7817    524.91327    35515.542 
   19500    298.40198   -1194.4332    364.52496    523.87968    479.15977    35515.542 
   19600    293.41323   -1160.3391    340.57395    511.38986   -4.7148386    35515.542 
   19700    296.10807   -1225.3484    337.81088    455.84347    151.13357    35515.542 
   19800    293.79209   -1237.0239    353.56276    449.41268   -41.002142    35515.542 
   19900    293.06833   -1265.4166     326.6795    390.85321      198.331    35515.542 
   20000    296.03967   -1249.1817    338.20537    432.09436    662.84507    35515.542 
   20100    306.09616   -1252.3198    340.29247    476.66757    776.49988    35515.542 
   20200    299.91464   -1221.3461      368.564    507.86856     205.1633    35515.542 
   20300    299.03091   -1227.0781    339.70975    469.27293     346.4772    35515.542 
   20400    305.07178   -1257.8354    330.49704    456.70909    615.94256    35515.542 
   20500    305.62882   -1268.0043    338.96231    457.53268    649.36734    35515.542 
   20600    314.86399   -1247.6219    346.55549    527.40633    854.01417    35515.542 
   20700    305.75615   -1273.3443    347.17903    460.98704    318.47668    35515.542 
   20800    292.55027   -1277.0229    345.06426    395.28137     367.6189    35515.542 
   20900    307.65261   -1245.9839    354.52364    504.29595    343.38331    35515.542 
   21000     294.1979   -1234.7901    339.24662     439.1715   -207.35875    35515.542 
   21100    313.48961   -1244.7935    354.58783    532.03171    144.64698    35515.542 
   21200    298.32921   -1258.9836    347.01125    441.48544   -134.13673    35515.542 
   21300    299.07286    -1219.067    344.04581    481.81041    66.164532    35515.542 
   21400    305.06321   -1281.6105    351.19172    453.58984   -250.15731    35515.542 
   21500    311.23398   -1298.9268    330.86299    443.94034   -236.57009    35515.542 
   21600     300.4441   -1272.1053    346.01449    436.96191   -262.57816    35515.542 
   21700    299.65164   -1223.8044     360.6734    496.32646   -75.471163    35515.542 
   21800    306.90791    -1234.703    339.39384    497.06847   -248.21365    35515.542 
   21900    295.98023   -1277.2273    349.62946    415.20319    35.777445    35515.542 
   22000    302.89893   -1296.1072    334.75679    412.83932    -92.24671    35515.542 
   22100    292.10037   -1289.5108    363.71402     399.4021    499.39747    35515.542 
   22200    292.18995   -1279.3081    347.30224    393.59947    67.844076    35515.542 
   22300    305.35733   -1281.7471    354.39126    457.98715    211.71389    35515.542 
   22400    293.44684   -1281.7076     360.5705    410.17047    86.864361    35515.542 
   22500    297.91301   -1267.9435    337.69421    421.32038    24.209171    35515.542 
   22600    298.99567   -1282.4408    344.32749    418.36814    57.961899    35515.542 
   22700    300.12652   -1304.3267    356.91971    414.20488   -160.62966    35515.542 
   22800     313.2396   -1252.2941    333.14601    501.95505   -130.26042    35515.542 
   22900    299.58967   -1246.5584    348.21437    460.83229   -257.48997    35515.542 
   23000     293.4023   -1228.2807    379.21786     482.0426    510.89799    35515.542 
   23100    300.02318   -1263.6159    348.69122    446.21833    71.993351    35515.542 
   23200    300.71411   -1296.8593    339.15034    406.56866   -464.57674    35515.542 
   23300    298.67864   -1243.4322    367.51099    479.12198   -788.84821    35515.542 
   23400    292.71566    -1229.607    355.73219    454.11557   -329.39418    35515.542 
   23500    309.13614   -1298.4194    337.08809    441.15534   -286.71208    35515.542 
   23600    298.97252   -1273.0023    371.01766    454.39178    469.91742    35515.542 
   23700    310.87315   -1268.7404    374.54167    516.16834    776.61978    35515.542 
   23800    306.47988   -1339.5904    339.81357    390.65888    522.65772    35515.542 
   23900     294.2465   -1302.8376    353.64754    385.74536   -150.72083    35515.542 
   24000    304.23181   -1254.2847    356.61354    482.56555    466.81224    35515.542 
   24100    310.34728   -1248.8822    362.60826    521.70734    231.81554    35515.542 
   24200    311.73837   -1240.7674    355.19972    528.72474    95.363371    35515.542 
   24300    308.39421   -1223.0485    355.53322    531.60534    57.907943    35515.542 
   24400    297.50541    -1265.677    372.79552    456.83892   -14.811162    35515.542 
   24500    300.55178   -1284.5148    353.82525    432.85159    218.68153    35515.542 
   24600    289.49758   -1275.7564    360.81203    398.44622   -248.57112    35515.542 
   24700    301.68185   -1259.6846    361.97511    470.95858    503.82957    35515.542 
   24800     305.0022   -1300.1361    359.60755    443.20327    391.27356    35515.542 
   24900    293.09122   -1327.6638    357.26175    359.29213     690.3529    35515.542 
   25000    297.92158   -1304.5582    366.14698    413.19726    447.15999    35515.542 
   25100    301.60414   -1281.2809    362.66542    449.70007    -92.74384    35515.542 
   25200    297.65994   -1213.4443    363.95869     500.9359      369.153    35515.542 
   25300    297.89967   -1250.5272    341.08682    442.06869    105.65139    35515.542 
   25400    296.07441   -1245.1301     378.7305    476.82873    -201.6551    35515.542 
   25500    297.62319   -1255.3633    340.97704     435.8685   -682.39645    35515.542 
   25600    294.61281   -1230.9487    371.88172     477.5303    288.02782    35515.542 
   25700    297.90227   -1260.5694    387.09247    478.04397    612.62724    35515.542 
   25800    291.54192   -1298.5874    377.41458    401.49246    312.02562    35515.542 
   25900    305.35096   -1309.5407    355.45369    431.22706   -10.376399    35515.542 
   26000    301.65129   -1289.1172    364.71979      444.132    363.98672    35515.542 
   26100    309.37746    -1258.584     383.1075    528.10496   -70.210887    35515.542 
   26200    295.63979   -1222.4699    381.16362    499.95022    426.39078    35515.542 
   26300    297.94017   -1275.5301    365.40252    441.56532   -145.77835    35515.542 
   26400    301.61212   -1282.4937    385.15944    471.01743     416.3473    35515.542 
   26500    301.58143   -1276.2525    353.17277    445.13279   -126.14498    35515.542 
   26600    303.72626   -1272.6596    385.38842    490.67194   -327.52193    35515.542 
   26700    299.98114   -1281.8147    370.31905     449.4566   -195.11772    35515.542 
   26800     301.3201   -1286.4112    371.91485    452.53057   -388.41256    35515.542 
   26900    294.87956   -1237.0604    378.17774    478.92483   -489.24218    35515.542 
   27000    301.25204   -1255.4136    353.59863    464.90316    -231.4127    35515.542 
   27100    299.85913   -1277.8467    362.82079    445.37285    16.701447    35515.542 
   27200    300.96211   -1235.8402    362.38484    491.94735   -389.96579    35515.542 
   27300    313.40787   -1268.8528    384.38646    537.40021    104.29026    35515.542 
   27400    292.48407    -1262.524    370.16872    434.58441   -4.7737935    35515.542 
   27500     294.2611   -1277.1563    369.31829    427.16361    185.61798    35515.542 
   27600    299.72534   -1300.7032    385.15063    444.23924    274.46247    35515.542 
   27700    301.98073   -1336.0882    366.68733    400.62317    541.25913    35515.542 
   27800    307.84264   -1327.2859    343.96187    413.29425     73.53125    35515.542 
   27900    292.23377   -1272.5009    378.68819    431.99133    275.50785    35515.542 
   28000    309.44943   -1252.1785    380.57212    532.30161    529.97661    35515.542 
   28100    311.05553   -1264.0663    359.73165    506.85988    103.81845    35515.542 
   28200    301.19519   -1300.2236    366.20971    432.44629   -138.49837    35515.542 
   28300    300.42406   -1320.5936    384.27859    426.64675    93.877846    35515.542 
   28400    298.28345   -1303.2062    392.06121    442.10531    297.81053    35515.542 
   28500    306.65326   -1256.9076    385.97909    520.29379    578.80319    35515.542 
   28600    302.05713   -1291.7901    378.49305     457.0736    460.95617    35515.542 
   28700    295.46063   -1336.5875    378.06898    381.92521     306.4358    35515.542 
   28800    301.84091   -1316.3273     389.4763     442.5387   -29.962519    35515.542 
   28900    304.75159   -1294.3302    385.40191    473.66653    684.78302    35515.542 
   29000    293.00421   -1281.0648    383.52325    431.75785    168.94207    35515.542 
   29100    294.34154   -1334.3641    383.26608    384.26861    131.96547    35515.542 
   29200    292.51173   -1246.0366    387.49368    468.52216    535.19499    35515.542 
   29300    300.35476   -1289.2193     403.6827    477.11077    595.78418    35515.542 
   29400    306.64102    -1267.614    405.22226    528.77507    889.36565    35515.542 
   29500    299.39754   -1301.6026    366.55891    423.26094    564.19424    35515.542 
   29600    298.96077   -1290.7189    402.91313    468.51728    59.744342    35515.542 
   29700    299.86053   -1288.7611    387.85618    459.50016    3.1753402    35515.542 
   29800    300.53285   -1271.1876     377.1943    469.46203    75.361611    35515.542 
   29900    294.11239   -1275.8908     394.3213    452.75746    522.33018    35515.542 
   30000    293.49598   -1272.0022    379.69779    439.22609     310.1141    35515.542 
   30100    297.95228   -1293.9958    390.99715    448.74914    543.46384    35515.542 
   30200    303.88023   -1283.8014    396.79875    491.63901   -91.806127    35515.542 
   30300    309.02408   -1281.4053    397.86044    518.43339   -17.646119    35515.542 
   30400    284.90199   -1270.0022    376.33733    398.87648    1014.6258    35515.542 
   30500    296.92067   -1274.9042    389.39294    461.55636    167.83602    35515.542 
   30600    295.52916   -1222.0304     402.9809    521.70511    188.34621    35515.542 
   30700    299.64281   -1286.8448     392.0626    464.63515    625.91247    35515.542 
   30800    291.98096    -1322.374    424.68429    426.96747    212.34045    35515.542 
   30900    308.56367   -1272.0052    393.03617    520.92043    606.72019    35515.542 
   31000    307.08318   -1278.6247    407.16965    521.71778    1125.6884    35515.542 
   31100    293.99681   -1265.8988    388.81599    456.71981    122.83312    35515.542 
   31200    302.69506    -1323.815    398.40028    447.85011   -155.67537    35515.542 
   31300    306.68817   -1274.4066     396.8547    513.82878    481.38613    35515.542 
   31400    293.55825   -1296.0119    402.11351    437.91459    609.35365    35515.542 
   31500    302.52206   -1309.8852    389.70411    452.29889    708.48608    35515.542 
   31600    310.24736   -1302.9687    399.30117    503.86052    466.43048    35515.542 
   31700    303.40951   -1307.6126    398.08961    466.98311    483.61523    35515.542 
   31800    295.10818   -1323.3179    401.15668    416.68354     483.8662    35515.542 
   31900    305.04172   -1323.5844    388.84322    449.16998    27.661066    35515.542 
   32000    305.77598   -1340.1851    411.52636    458.58358    -287.8975    35515.542 
   32100    297.81136   -1338.5541    413.06485     425.6192   -219.88277    35515.542 
   32200    298.96875   -1330.9601    405.84027    431.23944    494.32097    35515.542 
   32300    299.28394   -1320.2865    404.07089    441.57357    797.89404    35515.542 
   32400    297.20582   -1390.0423    389.45732     347.7763     480.5169    35515.542 
   32500    292.73094   -1337.1184    385.01311    375.95435    424.20103    35515.542 
   32600    297.17486   -1343.0692    403.92113    409.07276    77.193794    35515.542 
   32700    287.37119   -1362.5527    403.70423    344.89509    155.24801    35515.542 
   32800    312.81044   -1323.7282    421.82934    517.25733    470.07884    35515.542 
   32900    292.07558    -1325.393    387.21689    386.91032    368.90755    35515.542 
   33000    299.19421   -1301.3107    413.91044    469.98189    184.09626    35515.542 
   33100    298.50976   -1325.1284    382.22016    411.36869   -134.73861    35515.542 
   33200      309.566   -1310.9831    393.04493    486.49867   -185.92777    35515.542 
   33300    303.46673   -1297.0141    413.81625    493.56785    -482.0592    35515.542 
   33400    312.73441   -1297.3412    391.89332    513.36333   -100.29332    35515.542 
   33500     300.1101   -1311.1613    413.97902     464.3551   -245.01653    35515.542 
   33600    302.22719    -1320.984    403.74053    453.89869    208.00416    35515.542 
   33700    295.31643   -1276.0022    378.96706    442.75435    406.52197    35515.542 
   33800     298.1287   -1348.8183    400.29274    404.02261    512.11813    35515.542 
   33900     303.3224   -1314.4565    386.14937    447.80377    654.03448    35515.542 
   34000    296.13298   -1308.1538    412.03616    447.37637     333.5125    35515.542 
   34100    295.21608   -1302.8659    403.48442    439.95273     344.1756    35515.542 
   34200    299.85349   -1333.0335    403.46172    430.80135    841.10172    35515.542 
   34300    300.79292   -1319.4936    414.81616    459.95774     494.0788    35515.542 
   34400    300.45527     -1337.17    417.38841    443.32169    288.28386    35515.542 
   34500    301.08262   -1353.4613    424.11961     436.6078    60.642156    35515.542 
   34600    304.64718   -1379.3762    416.47862    419.22353    371.00045    35515.542 
   34700    292.07516   -1357.9755    398.66182    365.77078    946.31171    35515.542 
   34800    302.65858   -1365.8278    395.52657    402.79805    581.53575    35515.542 
   34900    306.62486   -1304.3989    413.05819    499.75273    317.56009    35515.542 
   35000    296.62709   -1322.7453     399.2003    422.19068    781.52674    35515.542 
   35100    299.19909   -1283.7666    422.47672    496.11447    679.13783    35515.542 
   35200    299.41761   -1309.7557    411.54591    460.18592    891.60458    35515.542 
   35300    287.92428   -1343.3203    419.44647    382.37901    436.24326    35515.542 
   35400    302.04401   -1302.5224     413.8284    481.61715    621.47359    35515.542 
   35500    292.87119   -1347.4723    418.32782    399.55146    152.71864    35515.542 
   35600    306.89147   -1304.1218    418.98007    507.16137     298.1173    35515.542 
   35700    304.73954   -1305.3402    410.92151    488.12152    33.774078    35515.542 
   35800    310.43815    -1312.513    396.47167    492.35223     465.5562    35515.542 
   35900    300.07828   -1307.5887    407.75357    461.55786     656.9567    35515.542 
   36000     293.6282   -1301.2117    417.90183     448.8204   -633.35372    35515.542 
   36100    299.59704   -1335.8208    414.27459    437.66355    483.20839    35515.542 
   36200    300.57767   -1341.1228    414.66292    437.19876    107.31794    35515.542 
   36300    304.19551   -1322.7958    405.98974    463.26597    501.92883    35515.542 
   36400    296.61567   -1344.6728    413.87055    414.88161    342.75512    35515.542 
   36500    300.75968   -1357.2894    395.67704    402.87201    156.57168    35515.542 
   36600     302.1729   -1356.4004     389.8267    404.32213    582.01211    35515.542 
   36700    299.89577   -1344.6668    423.66785     439.5661     655.3038    35515.542 
   36800    293.09433   -1360.1702    423.74549    393.28355    472.93316    35515.542 
   36900    287.75489   -1351.8862    389.36513    342.96324    857.61507    35515.542 
   37000    300.77569   -1389.3703    405.65892    380.84557    464.69521    35515.542 
   37100    305.90385   -1326.3667    419.28992    480.74566    346.86305    35515.542 
   37200    300.34892    -1381.319     410.4235    391.72531    621.74872    35515.542 
   37300    306.58363   -1393.1917    421.64396    419.35873    55.585024    35515.542 
   37400    298.85588   -1389.0335    393.19589    360.00967    340.41282    35515.542 
   37500    300.08424   -1378.7614    415.07844    397.73706    627.04849    35515.542 
   37600    307.71487   -1380.3959    413.63005    429.27274    258.68614    35515.542 
   37700    305.08242   -1369.1281    401.50537      416.473    626.45416    35515.542 
   37800    299.80894   -1352.1557     428.3417    436.35706      50.0677    35515.542 
   37900    298.63778   -1394.0082    422.55999    383.40957    107.52193    35515.542 
   38000    293.65607    -1382.134     416.8588    366.98158    688.28482    35515.542 
   38100    291.67983   -1363.2035    419.47193    379.55938    314.37002    35515.542 
   38200     295.6604   -1353.5245    404.60895    392.43449    548.91938    35515.542 
   38300    308.51507   -1377.3267    412.02584     434.3681     149.1305    35515.542 
   38400     287.4051   -1375.1931    427.54977    356.25411   -57.307981    35515.542 
   38500    295.88984   -1348.7043    413.79927    407.48591     395.2002    35515.542 
   38600    295.44284   -1355.1417    395.73186    380.95317     35.41641    35515.542 
   38700    301.70925   -1370.7275    410.69452     408.7594    167.92445    35515.542 
   38800    291.43688   -1348.0933    404.54008    378.63551    269.41767    35515.542 
   38900    292.05327   -1383.0685    387.07059     328.9873     508.1866    35515.542 
   39000    300.35422   -1373.0427    435.54766    425.14987    509.46067    35515.542 
   39100    292.26366    -1401.431     397.4912    321.99985    705.90767    35515.542 
   39200    293.15423   -1380.0416    414.19083     364.1292    145.82664    35515.542 
   39300    300.32993    -1331.368    423.71583    454.88251    509.75223    35515.542 
   39400    303.37093   -1367.6266    420.96186    429.66637     350.8897    35515.542 
   39500    303.50473   -1363.3906      424.754    438.30145    91.053463    35515.542 
   39600    302.94887   -1324.8045    429.01894    478.63067    447.49275    35515.542 
   39700    313.48153   -1346.0378    440.31116    516.47409    325.97131    35515.542 
   39800    298.22371    -1394.295    438.16689    396.85108    324.61256    35515.542 
   39900    304.08764   -1402.5675    418.43482    395.44998    -214.6461    35515.542 
   40000    302.65725   -1406.7441    414.85878    381.20791    545.83761    35515.542 
   40100    297.57295   -1390.1525    432.90006    392.77436   -267.20482    35515.542 
   40200    302.70182   -1360.4339    446.46962     459.3312    124.85761    35515.542 
   40300    296.70206   -1336.1185    421.30559    431.26285   -661.49215    35515.542 
   40400    312.15639   -1372.2565    420.01295    463.94539    301.87735    35515.542 
   40500    293.57797   -1370.1255    447.43325    409.21015    42.390287    35515.542 
   40600    309.43953   -1352.2398    424.37575      475.999    189.80687    35515.542 
   40700    302.16874   -1334.5606    457.89664    494.21299    415.39897    35515.542 
   40800    300.44915   -1392.9819    442.28335    412.37708    735.64998    35515.542 
   40900    302.47972   -1351.4383    450.76798     471.6175    1202.4358    35515.542 
   41000     289.4425   -1358.7932    427.47483    381.82227    698.38762    35515.542 
   41100    300.64016    -1319.351     431.2553    475.84641    951.42852    35515.542 
   41200    295.45424   -1317.7745    434.79528    457.43543    463.64391    35515.542 
   41300    290.20164   -1371.7634    420.23191    365.05322   -96.781206    35515.542 
   41400    300.35596   -1350.1656    433.40513    445.89228    240.72912    35515.542 
   41500    295.43308    -1312.638    420.31331    447.99407   -46.694263    35515.542 
   41600    297.43962   -1324.9105      422.111    446.62248   -183.77334    35515.542 
   41700     306.1692   -1348.9874    444.06533    484.10421    431.53156    35515.542 
   41800    307.95497   -1319.6338    419.60924    497.10336   -74.547606    35515.542 
   41900    303.89518   -1335.9414    449.95938    492.72744     487.7689    35515.542 
   42000    294.76682   -1339.3661    422.56798     420.4979    71.556218    35515.542 
   42100    313.12992   -1364.5338    422.05337     478.1252    409.72998    35515.542 
   42200    308.62255   -1299.9456    442.77503    542.98598    478.29085    35515.542 
   42300    293.55744   -1318.4366    455.99258    469.36525   -137.66305    35515.542 
   42400    305.29912   -1332.4958    449.31655    501.89967    247.16247    35515.542 
   42500    301.44174   -1359.1305    450.28092    458.72917   -568.82533    35515.542 
   42600    305.87899   -1376.1044    443.10567    454.71095    81.678234    35515.542 
   42700    302.09631   -1377.0602    445.01633    438.50447   -26.515001    35515.542 
   42800    290.84543   -1338.8527    430.22295    410.87577   -65.847656    35515.542 
   42900    296.42255   -1355.3761    462.19643    451.62808   -823.00423    35515.542 
   43000    304.87755   -1339.6158    456.89472    500.44523    273.02234    35515.542 
   43100    306.27193   -1330.8966    464.66287    523.25858     717.4588    35515.542 
   43200    304.12549   -1305.6306    445.87425    519.99798    783.97181    35515.542 
   43300    300.11064   -1341.9087    438.47637    458.10748    352.30358    35515.542 
   43400    292.02302   -1368.0763    435.04874    391.82041   -205.03829    35515.542 
   43500    297.60404    -1356.347    447.14339    440.96429    265.15452    35515.542 
   43600    298.32165   -1396.4301    442.44493     399.4384   -201.20675    35515.542 
   43700    294.81307   -1321.8158     439.2938     454.9838    584.71543    35515.542 
   43800    296.96255   -1384.8933    424.22139    386.58571    706.25541    35515.542 
   43900    298.65127   -1342.2788    429.80645    442.44664     417.6375    35515.542 
   44000     303.8412   -1347.4101    425.34452      456.399   -151.41754    35515.542 
   44100    294.48798   -1375.6338    437.80965    398.20684   -169.88277    35515.542 
   44200    295.05594   -1404.8414    424.42485     358.1911   -178.48933    35515.542 
   44300    293.43358   -1376.2862    423.78253    378.74369    152.18524    35515.542 
   44400    292.52817   -1382.6597     442.8928    387.37284     339.5649    35515.542 
   44500    303.78918   -1392.6983    431.69257    417.22284   -398.07238    35515.542 
   44600    304.20374   -1420.4148    433.37696    393.07159   -618.07053    35515.542 
   44700    299.89342   -1376.4317    457.55419    441.67685    149.40374    35515.542 
   44800    297.47938   -1333.1413    444.88448    461.34554    106.76942    35515.542 
   44900    302.91908   -1366.9888    453.04126    460.33361   -282.70776    35515.542 
   45000    314.49003   -1344.5685    452.30569    534.51328   -405.24196    35515.542 
   45100    308.25267   -1358.2544    445.40855    485.63269   -212.52979    35515.542 
   45200    305.13343   -1358.3672    455.15878    481.11871    267.56406    35515.542 
   45300    298.14902     -1384.52    447.23782    415.35823    237.91125    35515.542 
   45400    299.88025   -1373.1542    439.23489    426.57525    366.21889    35515.542 
   45500    303.23128   -1425.3016    445.21459    395.61055   -9.5173038    35515.542 
   45600    298.83825   -1405.5008    447.83974    398.10624    25.139486    35515.542 
   45700    303.96053   -1373.8611    443.35579    448.50063     399.4071    35515.542 
   45800    292.38827   -1378.3447    460.63183    408.79217   -206.48302    35515.542 
   45900    296.79494   -1373.2903    449.58923    422.79607   -119.42685    35515.542 
   46000    304.39364   -1401.0985    448.13687    428.00933   -494.59267    35515.542 
   46100     301.8634   -1396.6236    447.23076    420.09886   -451.35051    35515.542 
   46200    294.96041   -1427.4158    424.36847    335.12702   -736.38602    35515.542 
   46300    297.14767   -1394.1706    441.24659    395.17349   -990.78398    35515.542 
   46400     298.7889   -1354.9107    480.61829    481.25098    -742.3275    35515.542 
   46500    305.77379    -1358.134      453.663     482.7614   -919.99246    35515.542 
   46600     306.0073   -1425.8075    486.96216    449.44639   -384.53165    35515.542 
   46700    297.51466   -1433.8059    449.17759    365.13412   -157.51569    35515.542 
   46800    296.22149   -1407.3802    469.35783    405.87321    47.492373    35515.542 
   46900    297.75388   -1356.2927    462.23359    456.78854    560.50213    35515.542 
   47000    301.21205   -1407.1296    435.08831    394.49542    946.13725    35515.542 
   47100    305.02462    -1407.885    435.67133    411.61989    429.25602    35515.542 
   47200    294.37768   -1385.9444     441.9005    391.48664    685.29558    35515.542 
   47300    306.87139    -1387.541    472.38979    477.06073   -269.10248    35515.542 
   47400    302.30307   -1368.6835    482.09643    484.89932    604.34689    35515.542 
   47500    295.18361   -1391.9787    462.68455    409.89278   -11.085554    35515.542 
   47600    304.24564   -1363.7077    456.43105    473.02278    206.91787    35515.542 
   47700    302.16602   -1367.3999    459.30569    462.77043    724.42538    35515.542 
   47800    302.72408   -1347.8704    462.73833    488.26436    561.90725    35515.542 
   47900    300.99838   -1393.5182    467.44241    439.49149    29.080662    35515.542 
   48000     306.3593   -1432.8482    460.66691    417.70739   -527.68583    35515.542 
   48100     300.8183   -1415.3086    443.03832    392.48005   -163.48817    35515.542 
   48200    294.92067   -1395.6092    448.19173    390.57654   -354.35252    35515.542 
   48300    293.39062   -1416.1884    445.75094      360.615    -225.9429    35515.542 
   48400    300.34958   -1408.8203    462.44695    416.25049   -189.63229    35515.542 
   48500    295.24762   -1378.2441     436.8384    398.07161   -752.07958    35515.542 
   48600    296.39964   -1414.5005    433.53658    363.73986   -112.25618    35515.542 
   48700     291.0865   -1400.9824    430.82089     350.4376   -294.50355    35515.542 
   48800    318.15608   -1392.5069    442.04478    492.94614   -292.31819    35515.542 
   48900    291.70311   -1404.5094    453.21186    372.09908    22.729423    35515.542 
   49000    287.09907   -1388.3552    459.49699    373.65086   -155.10309    35515.542 
   49100    302.35407   -1414.3304    438.45321     395.8406    398.18195    35515.542 
   49200    299.78222   -1397.3934    480.76169    443.41819    210.36677    35515.542 
   49300    305.05517   -1393.7988    469.48132    459.65465   -217.92205    35515.542 
   49400    303.55607   -1390.3451    456.46408    443.28998   -171.49021    35515.542 
   49500    290.47379   -1362.1025      434.634      390.351   -196.32748    35515.542 
   49600    295.01609   -1382.6302    440.61569    396.41237    389.66063    35515.542 
   49700    312.95631   -1403.7637    435.02414    451.07841    60.607185    35515.542 
   49800     297.7032   -1397.8348    456.39798    409.18092    137.36674    35515.542 
   49900    304.38714    -1400.921    445.90664    425.92702    89.491516    35515.542 
   50000    295.06612   -1380.4799     455.8389    414.01287    84.101641    35515.542 
   50100    306.56771   -1371.6086    449.84618    469.07176   -6.1301263    35515.542 
   50200     304.0778   -1374.7528    439.44097    444.22618   -122.49378    35515.542 
   50300    309.36705   -1400.9864    442.55042    445.09823     175.8313    35515.542 
   50400    294.59854   -1419.0688    444.50815    361.97192   -115.10367    35515.542 
   50500    312.06967   -1382.7386    452.73849    485.79539    237.67079    35515.542 
   50600    300.37975   -1413.1842    439.67533    389.25184    669.80799    35515.542 
   50700      308.532   -1389.2105    460.25243    470.78775    945.50853    35515.542 
   50800     288.8995    -1416.827    458.94854    352.79879    404.56959    35515.542 
   50900    304.72534   -1410.0048    451.19012    423.66105    465.26579    35515.542 
   51000    303.59843   -1417.0362    442.34731    402.67429   -302.86394    35515.542 
   51100    294.94572   -1431.0329    464.26217    371.33689   -207.15927    35515.542 
   51200    300.03382   -1400.3748    432.16226    392.97876   -159.82784    35515.542 
   51300    303.27926   -1391.3685    448.20688     432.7536    -409.3724    35515.542 
   51400    299.95556   -1403.5284    436.63198     393.9399   -642.20485    35515.542 
   51500     293.3771   -1370.3916    449.49719    410.09668   -801.66039    35515.542 
   51600    300.14705   -1384.1061    469.09634    446.69524   -1012.8396    35515.542 
   51700    294.68033   -1368.7428    437.20937    405.37022    87.686526    35515.542 
   51800    307.95921   -1349.4723    449.90314    497.57795   -188.83887    35515.542 
   51900    297.39509   -1425.3878    424.42597    348.25812   -436.54101    35515.542 
   52000    303.91041   -1367.8358    480.07767    491.02039    180.45664    35515.542 
   52100    304.27885    -1406.455    471.54993    445.54507    125.50099    35515.542 
   52200    302.41413   -1388.2297    472.45629    456.21689    105.38237    35515.542 
   52300    316.35523   -1350.8692    425.12337    509.49235     -156.177    35515.542 
   52400    305.70503   -1393.6013    465.16093    458.48005   -387.94968    35515.542 
   52500    288.77485    -1377.697    502.28693    434.70157   -441.69156    35515.542 
   52600    297.94884   -1370.2968    463.28195    444.71731   -849.09805    35515.542 
   52700    299.61459    -1372.122    457.17975    444.34704      38.5749    35515.542 
   52800     300.2573   -1393.3151    461.83618    430.72629    152.23704    35515.542 
   52900    312.59911   -1359.3294    470.91305    529.78104    1220.6011    35515.542 
   53000     292.0714   -1356.4676    459.00904    427.60888    569.35546    35515.542 
   53100    298.40987   -1336.0618    469.13802    486.90002    946.77466    35515.542 
   53200    305.77229   -1349.3654    467.24101    505.10119    1292.0854    35515.542 
   53300     303.2517   -1345.8872    470.33341    500.23636    1355.1729    35515.542 
   53400    298.59174   -1341.6383    472.57247    485.58304    677.64398    35515.542 
   53500    292.70818   -1351.8711    472.86335    448.94869    332.15463    35515.542 
   53600    305.01516   -1378.0499    454.00975    459.75043    268.68486    35515.542 
   53700    294.21222   -1347.0969    450.37236     438.0554    401.51249    35515.542 
   53800    297.77598   -1332.3256    439.29895    457.92133    239.71228    35515.542 
   53900    306.59627   -1364.1687    454.49476    481.28984    613.26101    35515.542 
   54000    290.62179    -1406.792    449.55683    361.25572   -218.04982    35515.542 
   54100    293.11883   -1387.2078    464.14722    406.75884    20.579041    35515.542 
   54200    297.90988   -1358.4524    470.81149    463.91446   -175.87269    35515.542 
   54300     300.6172   -1369.3312     480.7597    475.26645    -120.7091    35515.542 
   54400    303.32486   -1337.0263    478.94661    518.04238   -73.242869    35515.542 
   54500    308.91743   -1378.1615    471.12359    494.45649     356.3158    35515.542 
   54600    298.41626   -1371.4466    496.50084    478.90698    431.82512    35515.542 
   54700    295.23837   -1371.3723    444.85351    412.91654    243.38817    35515.542 
   54800     295.9796    -1382.644    460.39424    420.54837     440.0652    35515.542 
   54900     303.7954   -1406.6031     450.2321    421.88582    250.15682    35515.542 
   55000    302.02252   -1444.0586    439.28812     365.4432    989.95707    35515.542 
   55100    290.53053   -1391.1644    455.88357    382.79605    782.29851    35515.542 
   55200    297.72549   -1384.7009     475.3632    441.38122    1059.1636    35515.542 
   55300    305.29203   -1401.9821    437.08518    420.14981    478.88072    35515.542 
   55400    290.18368   -1355.7801    453.43572    414.15889    768.08276    35515.542 
   55500    298.87285   -1368.7124     486.0447     473.2565    482.80847    35515.542 
   55600    300.95359   -1372.6799    461.56826    454.25247    192.80378    35515.542 
   55700    294.27361   -1362.6005    452.19057    424.64852    849.19978    35515.542 
   55800    294.65298   -1354.4515    426.24537    408.57344    405.14901    35515.542 
   55900    294.65782   -1365.0367    451.82349    423.58832    30.115855    35515.542 
   56000    304.46303    -1371.041    467.51777    477.76247     3.613732    35515.542 
   56100    292.68687   -1421.5813    454.56702    360.84544   -128.58971    35515.542 
   56200    312.46737   -1403.9789      457.704    471.32486    402.56567    35515.542 
   56300    304.06496   -1388.6278    457.24888    448.10087    197.46521    35515.542 
   56400    290.54138   -1399.0182    473.07354    392.18143    505.99466    35515.542 
   56500    297.02174   -1417.5924    464.51202    394.44571    768.94473    35515.542 
   56600    303.17655    -1452.636    444.06825    366.88147    415.16677    35515.542 
   56700    295.31206   -1421.8798    450.74712    368.63696   -351.05572    35515.542 
   56800    296.91609   -1414.4126    452.65494    385.28914   -367.62549    35515.542 
   56900    297.90115   -1390.1692    474.60859    435.95516     -363.533    35515.542 
   57000      298.611   -1419.7114    433.82617    368.85106    184.03905    35515.542 
   57100    304.65367    -1363.971    445.42389    463.60354    358.88138    35515.542 
   57200      295.542   -1395.2972    455.66026     401.1759    544.57565    35515.542 
   57300    307.34167   -1396.5638    454.28435    452.06603    294.45334    35515.542 
   57400    304.11111   -1377.8314    459.60748    461.46519    214.85113    35515.542 
   57500    286.92396   -1386.2875    472.82468    388.25173    331.04517    35515.542 
   57600    302.01943   -1373.4193    479.52794    476.30821    211.18882    35515.542 
   57700    296.01743   -1392.9431    465.02618    415.05289     441.7393    35515.542 
   57800    305.63175   -1401.0061    438.00013    423.58195    314.64115    35515.542 
   57900    303.44457   -1408.1243     475.6016    444.14245   -215.46127    35515.542 
   58000    307.72279    -1386.782    449.00672    458.29927    151.34855    35515.542 
   58100    304.62939   -1386.8843    441.17964    436.33576    284.26197    35515.542 
   58200    299.33715   -1423.6493    466.48646    400.86785   -138.26734    35515.542 
   58300    309.35504   -1417.4264    457.78886     443.8422    347.03956    35515.542 
   58400     299.9198   -1415.5458    470.94136    416.06955    11.749536    35515.542 
   58500    301.09848   -1459.7342    486.91007    393.19727    82.847381    35515.542 
   58600    302.93386    -1461.203    464.00998    377.15522    -168.2139    35515.542 
   58700    295.36129   -1471.0343    470.29434    339.25305    168.53104    35515.542 
   58800    300.26478   -1479.6695    441.20319     323.7728    136.57301    35515.542 
   58900    296.28881   -1465.5791    431.79943    310.42127    364.98513    35515.542 
   59000     302.7119    -1474.895    470.02528    368.47144    518.58514    35515.542 
   59100    290.72599   -1448.7625    482.53137    352.73249    638.97291    35515.542 
   59200    308.30114    -1440.253    469.21114    427.65659    877.12884    35515.542 
   59300    298.58313   -1425.3772     423.1887    352.42134   -84.659573    35515.542 
   59400    305.14827   -1444.7965    466.48179    406.07978    280.38783    35515.542 
   59500    306.68572   -1421.0053    466.21215    436.57643   -113.88344    35515.542 
   59600    309.77267   -1355.8087    494.16808    543.73385   -423.15252    35515.542 
   59700    309.49158   -1435.5927    440.87469    409.38121    140.28387    35515.542 
   59800    295.57194   -1454.6486    486.12146    372.42155    331.47911    35515.542 
   59900    306.94138   -1452.3521    455.37047    395.54782    315.39158    35515.542 
   60000    303.80416   -1434.6666    443.73457    387.36451     559.4602    35515.542 
   60100    299.14719   -1458.5601    486.11247    384.72121    238.96301    35515.542 
   60200    303.70957   -1427.4497    448.83154    399.24926    241.78769    35515.542 
   60300    293.76627   -1390.1952    432.32615    374.88774    305.53068    35515.542 
   60400     306.6917    -1434.341    465.77997    422.83571    444.58738    35515.542 
   60500    301.93446   -1399.8551      498.472    468.43103    131.22866    35515.542 
   60600    302.00956     -1442.93     446.2968    373.52161   -172.46965    35515.542 
   60700    287.96165   -1414.9266    460.28245    351.77823   -299.43339    35515.542 
   60800    293.11162   -1439.9282    486.09494     375.9535   -18.400034    35515.542 
   60900    307.62532   -1423.1262     458.1284    430.63454    575.64462    35515.542 
   61000    308.76082   -1400.0365    456.79091    457.53832    430.65042    35515.542 
   61100    304.12621    -1405.394    459.77351     434.1372    289.07704    35515.542 
   61200    297.48236   -1412.3251    481.96507    419.25586    221.75433    35515.542 
   61300    305.21501   -1400.3996    469.38602    453.68372    156.81502    35515.542 
   61400    299.85373   -1392.3081    462.19338    430.25951    397.20583    35515.542 
   61500    294.47641   -1410.3655    464.23077    389.84372   -172.49848    35515.542 
   61600    300.00088   -1395.7864    467.06276    432.31823    142.09964    35515.542 
   61700     297.7126   -1484.5422    448.36933     314.4875    276.31391    35515.542 
   61800    293.89929   -1438.7675    465.63422    360.22694    329.29266    35515.542 
   61900    304.90304   -1423.2929    471.58722     431.5763    684.85631    35515.542 
   62000     306.9306   -1418.5058    453.87111    427.84586     129.7965    35515.542 
   62100    297.17792   -1462.8642    468.11757    353.48809   -413.87445    35515.542 
   62200    307.88917   -1423.6234    447.52482    420.73077    260.90646    35515.542 
   62300    295.89335   -1449.5562    462.73026    355.58086    322.24702    35515.542 
   62400    293.73708    -1465.371       480.97    348.22329    -32.45894    35515.542 
   62500    298.56675   -1448.3809    448.43786    354.59245   -169.01309    35515.542 
   62600    295.25372   -1455.3572    468.16434     352.3121    130.89668    35515.542 
   62700    294.52957   -1418.6157    472.09787    389.70182   -261.23293    35515.542 
   62800    300.57026   -1435.0768    466.93268    395.48093   -602.88636    35515.542 
   62900    299.33285   -1426.6315    452.20763    383.58725   -277.10612    35515.542 
   63000    301.64323    -1408.109    469.51842    429.90226    -336.9904    35515.542 
   63100    302.22893   -1434.5122    466.47043    403.10829    194.98509    35515.542 
   63200     305.0808   -1422.3792    444.79727    406.50645    444.80704    35515.542 
   63300    295.53967   -1409.5213    472.19735    403.47828     754.6519    35515.542 
   63400    288.77502   -1456.1334    459.08851    313.06751    51.895113    35515.542 
   63500    295.07759   -1439.6307    486.13005    385.20525    385.71366    35515.542 
   63600    301.54371   -1394.1447    485.15503    459.05173    366.63187    35515.542 
   63700    299.13343   -1451.0956    476.08204    382.09282   -231.29365    35515.542 
   63800    292.98313   -1465.1902    488.19033    352.20394   -585.49601    35515.542 
   63900    293.17381   -1414.1861    478.24574    394.12851   -322.36417    35515.542 
   64000     296.5504   -1447.9286    473.74919    371.20834   -515.58776    35515.542 
   64100    297.81056   -1429.5586    489.12072     410.6669   -134.65982    35515.542 
   64200    308.60783   -1465.2636    473.72434    408.55054    82.523885    35515.542 
   64300    302.30178   -1440.9102    471.98694    402.55725    68.912542    35515.542 
   64400    305.97693   -1431.9082    486.84445    443.09025    395.26807    35515.542 
   64500    307.25099   -1459.5146    484.27563    418.69513   -574.54409    35515.542 
   64600    294.81458    -1390.775    457.60616     404.3438   -851.41693    35515.542 
   64700    302.64587   -1437.5767    463.63995    399.10488   -365.80025    35515.542 
   64800    303.34239   -1475.7635    480.90707    381.34513    625.42971    35515.542 
   64900    312.81878   -1472.1283    477.84982    424.91551    132.94175    35515.542 
   65000    301.48735   -1469.9592     482.6715    380.49797    299.52606    35515.542 
   65100     305.4168    -1468.624    489.62945    406.61822    526.50384    35515.542 
   65200    306.71633   -1412.3036    496.15315    475.35802    626.00711    35515.542 
   65300    292.45501   -1425.7671    467.26081    368.30151    116.94081    35515.542 
   65400    297.01199    -1453.137    444.33689    338.68175    355.71472    35515.542 
   65500     305.7488    -1413.612    461.85265    435.35963   -73.441577    35515.542 
   65600    302.11644   -1455.8752    472.47284    387.23738   -140.37496    35515.542 
   65700    302.28572    -1420.057    476.14976    427.50042    243.08965    35515.542 
   65800    305.45812   -1451.5985    471.56074    405.76248   -231.77796    35515.542 
   65900    300.81414   -1472.1776    462.57153    355.12534    121.19482    35515.542 
   66000    306.46792   -1431.7985    494.11515    452.69817    21.996652    35515.542 
   66100    295.58315   -1475.5683    454.45869    319.88995    575.74481    35515.542 
   66200     303.1324   -1469.4926    460.34773    366.10405   -122.70162    35515.542 
   66300    303.77137   -1467.8772    496.16386    406.43441   -197.15394    35515.542 
   66400      302.954    -1436.872    487.98311    425.55067   -379.33693    35515.542 
   66500    302.25209   -1471.9127    483.88145    383.22385   -305.28631    35515.542 
   66600    300.15247   -1488.8019    456.82231    329.75003    291.00661    35515.542 
   66700    291.00835   -1476.2422    465.45196    309.45442    128.21162    35515.542 
   66800    310.37608   -1424.4142    443.70862     427.4064    405.87227    35515.542 
   66900    294.35825   -1501.4765    441.15538    275.12127   -258.54115    35515.542 
   67000    300.79571   -1475.4579    469.79687    358.98681   -436.26896    35515.542 
   67100     293.8629   -1475.5887    451.38634    308.99273    20.383573    35515.542 
   67200    307.55959   -1498.0073    467.51352    364.84034   -550.92424    35515.542 
   67300    293.49417   -1458.7728    473.35602    346.10551    65.590355    35515.542 
   67400     306.7401   -1473.5333    464.85651    382.93952    111.51609    35515.542 
   67500    303.03912   -1465.6074    479.88059    389.09894    11.179064    35515.542 
   67600    306.49859   -1473.1397    484.78614    402.16705    544.50813    35515.542 
   67700    298.01151   -1477.6913    472.54019    346.86538    535.97716    35515.542 
   67800     288.0993   -1474.3919    484.35566    317.01061    366.54873    35515.542 
   67900    288.69365   -1448.8825    459.28587    320.14666    497.56348    35515.542 
   68000    303.98383   -1483.7052     476.9324     372.3389    232.86352    35515.542 
   68100    313.35251   -1425.8996    475.29612    471.01199    212.14963    35515.542 
   68200    288.30436   -1441.1017    477.16462    344.04005   -905.57283    35515.542 
   68300    308.03135   -1448.5241    474.04553    422.99581   -737.74775    35515.542 
   68400    295.01624   -1460.6066    487.74214    365.56312   -421.00747    35515.542 
   68500    296.92628   -1457.1315    487.76876    377.73032   -14.862413    35515.542 
   68600    297.69323   -1452.9289     462.2469    359.89048    296.69684    35515.542 
   68700    292.04864   -1438.7547    492.37792    378.58741    157.38457    35515.542 
   68800    312.04921   -1432.3924    463.48871    446.79895    679.84023    35515.542 
   68900    298.68221   -1433.7132    494.57668    415.92281   -19.127713    35515.542 
   69000     304.9339   -1435.0887    482.82921    431.16243   -250.05096    35515.542 
   69100     308.3962   -1463.7665     467.0751    402.43831    349.35677    35515.542 
   69200    296.67944   -1468.4804    463.24132    340.73415    231.50293    35515.542 
   69300    296.36103   -1417.4211    463.09265    390.20015     749.8689    35515.542 
   69400    300.64401   -1404.0849    491.81638    451.69106    20.605908    35515.542 
   69500    304.77235   -1423.1537    475.46398    434.99933   -267.55014    35515.542 
   69600    310.39371   -1412.8238    471.56738    466.93552    560.53575    35515.542 
   69700    297.62026    -1426.824    484.11882    407.53627    308.22581    35515.542 
   69800    286.55037   -1445.9481    484.91481    338.98639   -15.287322    35515.542 
   69900    309.05192   -1437.4804    470.89341    435.51752    412.92439    35515.542 
   70000    304.65243   -1482.1691    470.25508    370.23094    96.293827    35515.542 
   70100    296.92327   -1401.5084    507.29609     452.8671   -253.32667    35515.542 
   70200    293.85663   -1416.4241    474.99967    391.74225   -329.18235    35515.542 
   70300    292.05636   -1429.6056    501.90999    397.30361    -167.6689    35515.542 
   70400     306.4779   -1470.3754    446.11084    366.16221    375.10449    35515.542 
   70500    301.83643   -1440.9712    485.81581      414.214    208.81247    35515.542 
   70600    303.76061   -1456.8767    498.79271    420.01498   -394.47014    35515.542 
   70700    299.34188   -1446.6513    461.39652    372.79734     173.1387    35515.542 
   70800    296.35943   -1418.7419    505.80521    431.58472   -395.77063    35515.542 
   70900    289.62761   -1400.9628    476.45692    389.47459   -489.87571    35515.542 
   71000    293.70334   -1407.0555    488.88449    414.30022   -337.81579    35515.542 
   71100     304.6756   -1442.2632    464.90295    404.88989   -545.17942    35515.542 
   71200    293.75297   -1442.1568    471.50699    362.04657    -661.3521    35515.542 
   71300    300.48315   -1433.0908    475.81675    405.95572   -15.558598    35515.542 
   71400    300.62285   -1455.5647    477.96217    386.26104    97.337438    35515.542 
   71500    302.90614   -1427.8589    476.56015    422.92373    79.714396    35515.542 
   71600    298.60801   -1422.2562    495.64209    428.10859    295.78522    35515.542 
   71700    300.41997   -1457.1572     482.9852    388.77114   -506.11837    35515.542 
   71800    303.95387   -1445.9338    487.96023    421.00221    74.189301    35515.542 
   71900    293.10366   -1449.2785    453.27755    333.74964    22.050285    35515.542 
   72000    300.00718   -1467.8779    470.07809     363.2707    -666.4856    35515.542 
   72100    291.46281   -1499.7385    478.54571    301.11367   -583.67478    35515.542 
   72200    313.09536   -1489.8659    488.99997    419.58285   -106.92638    35515.542 
   72300    308.75572   -1482.8501    456.48521    374.39584     60.28395    35515.542 
   72400     299.5283   -1483.4873    457.34815    332.75876   -621.05903    35515.542 
   72500    294.55406   -1466.5183    457.33493    327.14743   -342.92116    35515.542 
   72600    289.61394   -1457.3592    480.00809    336.56741    581.78502    35515.542 
   72700    297.04041   -1443.1636    489.01691    393.46412    945.97509    35515.542 
   72800     293.6359   -1466.9023    484.60274    349.86572    845.76895    35515.542 
   72900    294.64094   -1440.7631    471.19444    367.15624    760.06728    35515.542 
   73000    295.09871    -1403.122    480.36032    416.04001    651.65754    35515.542 
   73100    306.37193   -1413.8738    496.36835    472.44051    704.51684    35515.542 
   73200    296.63903   -1408.1259    476.32512    413.98903    878.65451    35515.542 
   73300    309.43613   -1466.1346    471.11514    408.82813     1440.254    35515.542 
   73400    303.68692   -1454.2125    455.16247    378.71463    963.71046    35515.542 
   73500    307.54516   -1478.5682    450.77667    367.47718    334.32572    35515.542 
   73600    296.56911   -1469.8897    464.88614     340.4691   -168.38539    35515.542 
   73700    299.58392   -1487.8908    446.00674    317.26609    217.11356    35515.542 
   73800    298.81598   -1425.4857     464.0186     394.1991   -47.822206    35515.542 
   73900    308.27328    -1463.778    459.64877    394.44274     234.4244    35515.542 
   74000    292.73423   -1478.3333    486.37167    336.11293    288.35504    35515.542 
   74100    300.96681    -1492.679    477.89817    350.64323     90.65097    35515.542 
   74200    308.27499   -1485.6012    484.66694    397.64552     227.1642    35515.542 
   74300    299.68116   -1477.7123    486.12653    368.00557   -6.4662552    35515.542 
   74400    303.53986   -1499.9506    462.41608    339.56296    281.94941    35515.542 
   74500    302.62226   -1527.0666    467.80375    313.67166   -274.04012    35515.542 
   74600    302.81201   -1502.6249    467.95067    339.12116   -290.19869    35515.542 
   74700     297.6016   -1477.3122     455.0724    327.91703   -167.80736    35515.542 
   74800    308.97256   -1471.8905    439.03565    368.88965   -376.51506    35515.542 
   74900    302.28426   -1476.5707    468.78932    363.61972    201.96849    35515.542 
   75000    307.38322   -1500.8904    459.82268    353.46624    85.016426    35515.542 
   75100    306.46182   -1451.6064    479.87162    418.61899    494.48108    35515.542 
   75200    292.33367   -1495.3684    467.77759    298.66654   -169.66644    35515.542 
   75300    301.31374   -1488.5962    464.22176    342.62362   -381.07245    35515.542 
   75400    300.39639    -1542.544    474.92788    295.22014    172.08305    35515.542 
   75500    297.80325   -1527.9926    469.46233    292.54144    87.216095    35515.542 
   75600    308.58245   -1506.2732    475.49127    369.19275    23.428606    35515.542 
   75700    306.41401    -1541.102    460.75055    309.78548    661.18687    35515.542 
   75800    304.02039   -1489.7319    458.99362     348.5393    123.45846    35515.542 
   75900    301.64936   -1452.2923    500.21016    416.43851    464.20109    35515.542 
   76000    291.88199    -1436.323    463.04275    350.92792    55.706473    35515.542 
   76100    290.58599   -1455.1026    477.78383    341.00968   -161.24028    35515.542 
   76200    304.79495   -1466.0033    479.37575    396.16399   -68.665407    35515.542 
   76300    309.71705   -1445.3269    446.50264    406.29784     -14.5661    35515.542 
   76400    292.98154   -1459.3614    467.86584    337.70099    352.23342    35515.542 
   76500    290.70596   -1470.7506     475.2498    323.37194    67.104884    35515.542 
   76600    302.24504   -1463.4315     468.7959    376.58758   -359.05953    35515.542 
   76700    296.89283   -1414.7614    480.38188    412.56173   -560.11681    35515.542 
   76800     289.1049   -1416.2399     461.3347    356.70389   -590.81227    35515.542 
   76900    298.48555   -1386.5167    485.94245    453.59288   -544.88875    35515.542 
   77000     291.6665   -1418.9033    481.95711    386.28426   -287.13359    35515.542 
   77100    313.84123   -1477.6095    467.93066    414.15381    109.24314    35515.542 
   77200    298.62268   -1444.8783    486.10093    396.01189   -537.33443    35515.542 
   77300    298.98787   -1421.6733    487.24559    422.01832   -211.60985    35515.542 
   77400     298.0289   -1431.5084    494.86452    415.45147     404.1598    35515.542 
   77500    304.27904   -1406.7367    472.56943     446.2837    25.798716    35515.542 
   77600    293.93804   -1402.6434    496.71503    427.60764   -125.13325    35515.542 
   77700    295.14549   -1399.1588    507.11065    446.96586    303.01724    35515.542 
   77800    304.88242   -1428.5688    490.70204    445.32168    107.63503    35515.542 
   77900    291.53184   -1432.8763    499.63837    389.38162   -453.85897    35515.542 
   78000    304.84997   -1386.4373    495.39853    492.00242   -165.21301    35515.542 
   78100    297.19115   -1440.5174    495.28588    403.06319   -344.67544    35515.542 
   78200    294.32736   -1462.6468    502.75619    375.41167   -194.66495    35515.542 
   78300    300.16002   -1459.0368    482.61938    385.34637   -462.80306    35515.542 
   78400    301.81919   -1439.4162    463.23125    393.10622    382.59649    35515.542 
   78500    296.17568   -1450.2354    470.89898     364.3513    683.86109    35515.542 
   78600    303.33622   -1429.5352     493.4868     440.1252    270.57424    35515.542 
   78700    298.65747   -1453.8087    515.34053    416.47891    168.65179    35515.542 
   78800    303.98892    -1493.796    470.19017    355.52893    723.41843    35515.542 
   78900    306.09924    -1450.845    484.37935    422.24324    310.16763    35515.542 
   79000    287.26265   -1429.7416    467.07499    340.58456    19.191635    35515.542 
   79100    294.49762    -1434.481    469.08636    370.68007    126.29085    35515.542 
   79200    302.13555   -1441.9966    487.81876    416.54857    384.89169    35515.542 
   79300     312.3236   -1392.3201    480.76148    505.38888    203.91691    35515.542 
   79400     301.7053   -1455.5126    485.83452    399.09639   -228.48009    35515.542 
   79500    291.93716   -1428.9414    483.22084    378.73783    107.95526    35515.542 
   79600    299.43503   -1428.1487    492.79278     423.1188    31.384818    35515.542 
   79700    312.83093   -1435.9056    445.09047      428.434    207.10131    35515.542 
   79800     310.2764   -1403.5562    453.63746    457.74098    97.672158    35515.542 
   79900    294.17689   -1413.6231    466.13474    387.13122   -235.13256    35515.542 
   80000    302.59662   -1453.3037    483.38939    402.90389    146.00483    35515.542 
   80100    309.62794    -1449.483    475.45259    430.68744    637.97094    35515.542 
   80200    289.52667   -1468.6805     475.4393    320.28137     506.2628    35515.542 
   80300    291.27289   -1461.8724    490.96576    350.53815    28.028247    35515.542 
   80400    306.62968   -1435.3973    469.86115    425.57922   -20.586182    35515.542 
   80500    296.81479   -1411.0666     456.6019    392.12257   -186.35956    35515.542 
   80600    294.19622   -1428.2259    481.20823    387.68964    254.72924    35515.542 
   80700    287.49893   -1408.8608    477.62313    373.08539   -35.884929    35515.542 
   80800    308.21812   -1446.6962    490.54456    442.17015    446.41073    35515.542 
   80900    304.04484   -1398.8867    482.01112     462.5129    91.751761    35515.542 
   81000    304.64797   -1394.7456    479.27753    466.65665    324.79761    35515.542 
   81100    291.50738   -1424.5213    492.99299    390.98026    393.05136    35515.542 
   81200    304.49395   -1433.0459    485.76422    434.14435    81.973039    35515.542 
   81300    303.85266   -1417.2807    493.06956    454.30546    658.95391    35515.542 
   81400    304.77099   -1444.3737    504.24425    442.55342    294.43915    35515.542 
   81500    304.00286   -1457.0043    487.68912    409.88281    728.07417    35515.542 
   81600    310.00637   -1476.7391    493.37308    423.06867    179.45127    35515.542 
   81700    296.17755   -1422.8303    474.57789     395.4438   -7.6875128    35515.542 
   81800    299.30821   -1477.7895    454.05169    334.16152   -434.84024    35515.542 
   81900    298.79964   -1467.9137    493.32556    381.00389    67.308903    35515.542 
   82000    301.73584   -1510.5695    482.98877    341.33229   -254.98465    35515.542 
   82100    298.84696   -1491.8656    466.86511    330.80632   -140.00939    35515.542 
   82200    290.83857   -1476.8448    479.68844    322.31803    157.21776    35515.542 
   82300    312.09103   -1483.5304    455.55262    387.91456   -28.842633    35515.542 
   82400    294.36911   -1483.5811    465.65587     317.5665    151.66237    35515.542 
   82500    296.85392   -1502.5956    462.61587    306.78505   -309.47898    35515.542 
   82600    309.43208   -1481.6853    486.30722    408.45119   -596.75539    35515.542 
   82700     303.3352   -1525.2604     492.9959    343.90451    36.389318    35515.542 
   82800    306.11208   -1492.8409    469.67648    365.60264    220.51222    35515.542 
   82900    300.26718   -1505.3058    479.67018    336.61445     169.2552    35515.542 
   83000    292.94589   -1433.2282    492.53737    388.34399   -207.52972    35515.542 
   83100    305.36347   -1471.8606    469.63078      383.141    -437.1112    35515.542 
   83200    297.45156   -1516.9815    448.20362    280.69828   -801.25091    35515.542 
   83300    310.78895   -1486.4878     483.9655    407.46275   -301.16699    35515.542 
   83400    306.14717   -1513.9129    474.75617    349.76958    20.030608    35515.542 
   83500    295.87672   -1515.6165    458.26076    284.97563   -551.66571    35515.542 
   83600    305.47737   -1530.7976    455.28002    310.36999   -46.949181    35515.542 
   83700    304.87816   -1511.0658    471.63992    343.74319    -494.5793    35515.542 
   83800    292.93178   -1519.6938    472.16011    281.43715    38.248318    35515.542 
   83900     288.9207   -1500.1777    458.96001    269.55576    87.549308    35515.542 
   84000    299.91878   -1475.8149    510.08858    394.94307   -64.864958    35515.542 
   84100    299.57014   -1481.2541    475.86631     353.6999   -88.092143    35515.542 
   84200     292.6769   -1468.3683     487.5072    346.95336    339.09273    35515.542 
   84300    303.38302   -1489.7979    506.56115    393.14923   -128.93185    35515.542 
   84400    297.40476   -1477.9677    481.16823    352.46437   -557.85498    35515.542 
   84500    296.96659   -1486.0076    455.05054    316.31892   -621.20741    35515.542 
   84600    306.88584   -1485.3047    454.31054    361.28333   -327.27696    35515.542 
   84700    310.37476   -1476.4653    451.66501    383.30572    81.886789    35515.542 
   84800    298.76854   -1498.8909    458.14727    314.70732   -137.66254    35515.542 
   84900    293.86782   -1515.6243    452.11407    269.70717   -199.81291    35515.542 
   85000    302.27173   -1513.4494    446.66615    304.56101   -363.46679    35515.542 
   85100    291.13648   -1527.4869    474.75662    268.09559    236.43616    35515.542 
   85200    296.47332   -1452.3352    463.26907    355.97196    1044.6825    35515.542 
   85300    297.06186   -1480.2783     468.3039    335.73376    305.75221    35515.542 
   85400    308.10064    -1493.335    458.16417    362.61795    528.66347    35515.542 
   85500    296.26475   -1518.0046     453.0843    279.17153   -361.79479    35515.542 
   85600    302.98535   -1484.2422    475.05873    365.39838   -67.958245    35515.542 
   85700     302.5866   -1467.2939    461.08527    366.56408    202.45777    35515.542 
   85800    307.75192   -1417.9381    462.41572    440.68432    402.15676    35515.542 
   85900    298.07431   -1448.2673    480.91645    384.95058    510.28655    35515.542 
   86000    302.07735   -1437.1523    473.58978    406.89984    524.48585    35515.542 
   86100    308.66713   -1452.0715    483.35782    431.64519    628.95607    35515.542 
   86200    305.10861   -1480.5453    486.54449    390.21374    14.445004    35515.542 
   86300    304.43609   -1444.3071    478.37828    415.23473   -247.93365    35515.542 
   86400    302.66788   -1452.6903    483.07158    403.52276      836.334    35515.542 
   86500    303.89816   -1447.1663    485.27666    416.83338    645.15899    35515.542 
   86600    300.93374   -1478.7041    475.63148    362.20146    343.74575    35515.542 
   86700     298.5196   -1508.6744    453.73162    299.37885    730.04782    35515.542 
   86800    294.25423   -1503.5484    463.18239    294.60453   -415.32058    35515.542 
   86900    303.40654   -1465.1134    477.90506     389.2843   -174.89423    35515.542 
   87000    294.19657   -1445.1252    485.44227      375.026   -246.69101    35515.542 
   87100    291.19303   -1467.9471    478.01383    331.14917   -426.51225    35515.542 
   87200    300.73179   -1437.2209    452.70434    379.84125   -274.66741    35515.542 
   87300    304.71091   -1448.8186    468.18447    401.77619   -143.62619    35515.542 
   87400     294.8369   -1446.1953    485.58222    377.00089   -404.41798    35515.542 
   87500    297.92355    -1398.484    508.50342    461.63683   -239.14212    35515.542 
   87600    296.61637   -1396.7852    501.49839    450.40018     349.7563    35515.542 
   87700    310.08735   -1432.1985    485.69681     460.3004    308.77972    35515.542 
   87800    300.01772   -1454.4992    497.65409     404.2731    290.10448    35515.542 
   87900    307.41614   -1449.4595    499.49142    444.71525    189.37552    35515.542 
   88000    297.93661   -1441.2317    498.49348    408.93849    26.383384    35515.542 
   88100    299.42921    -1428.608    492.33516    422.17544    249.76044    35515.542 
   88200     300.3368   -1404.7063    487.54045    445.40006   -217.06684    35515.542 
   88300    303.38426   -1406.9495    452.52129    421.96341    123.90823    35515.542 
   88400    306.16052   -1446.6235    484.57626    426.93959   -2.2938276    35515.542 
   88500    299.22736   -1412.8476    510.07075    454.75568   -430.06131    35515.542 
   88600    305.45285   -1448.1062    450.40177    388.07186    653.81921    35515.542 
   88700     304.7899   -1425.6625    480.42892    437.53505   -124.53679    35515.542 
   88800    301.61878   -1394.3193    484.32412     458.3867    90.539267    35515.542 
   88900    289.56574   -1407.5061    472.92437     379.1181    253.43747    35515.542 
   89000    298.10214   -1452.8528    476.94138    376.51628    130.07201    35515.542 
   89100    304.09845    -1410.014    493.67523    463.29288    380.11128    35515.542 
   89200    299.76033   -1397.0975    469.94677    432.79984    63.360615    35515.542 
   89300    298.16485   -1400.1762    471.86429    424.40026   -416.13874    35515.542 
   89400    311.77917   -1410.1001    475.21232    479.58976   -348.21977    35515.542 
   89500     293.4179   -1438.3997    479.35497    372.13146   -230.42342    35515.542 
   89600    297.39595   -1434.0087    468.68789      383.903   -546.75561    35515.542 
   89700    293.28014   -1402.2138     459.9209    388.25831   -81.464059    35515.542 
   89800    311.01669   -1395.2365    490.25488    506.03668    308.95096    35515.542 
   89900    306.77422   -1425.8367    467.35424    433.28861   -142.87888    35515.542 
   90000    298.89068   -1437.9506    467.80125    385.85577    307.02366    35515.542 
   90100    307.19173   -1472.0931    475.96235    397.53453    491.50057    35515.542 
   90200    298.10177   -1479.2482    484.32271     357.5005     59.12706    35515.542 
   90300     299.4697   -1493.1599    470.99851     336.4706    170.84945    35515.542 
   90400    293.07511    -1483.417    463.05758     309.2617   -555.65642    35515.542 
   90500    297.48276   -1439.7614    471.67487    381.53118   -463.63401    35515.542 
   90600    307.49845   -1455.3262    491.10293    430.83352    447.43081    35515.542 
   90700    303.94116   -1473.9679    503.37798    408.32819    254.73007    35515.542 
[...]
  984400    295.64693   -1417.2239    506.01092    430.07587   -80.414834    35515.542 
  984500    300.41697   -1437.0964    497.41684    423.25001   -183.53743    35515.542 
  984600    292.70495   -1468.7621    484.30035       343.48   -9.3013929    35515.542 
  984700    298.06629   -1462.5962    485.78256    375.45139   -102.47438    35515.542 
  984800    295.51078   -1482.1353    476.80853    335.34441    235.04435    35515.542 
  984900    293.79994      -1484.4    506.64808    355.15758     93.80922    35515.542 
  985000    299.34146    -1476.141    494.71065     376.6198    217.30065    35515.542 
  985100    299.91814   -1466.3671     460.4519    354.75127    160.64221    35515.542 
  985200    295.80559   -1443.2155    484.94332    383.73647   -511.26292    35515.542 
  985300    307.94298    -1512.622    489.53967    373.99117    471.14645    35515.542 
  985400    305.60582   -1465.2155    493.75706    415.01185    450.59904    35515.542 
  985500    291.93099   -1449.7187    520.02692    394.73868    698.89607    35515.542 
  985600    300.75745   -1431.8215    495.33801    427.99076    545.86191    35515.542 
  985700    308.06608   -1479.3086    478.55556    396.87899   -481.82389    35515.542 
  985800    293.84814   -1450.6988    486.18236     368.6117    141.21618    35515.542 
  985900    308.78183   -1460.9238    480.29783    420.25321    495.99365    35515.542 
  986000    300.71795   -1446.2476    478.92037    396.96782   -855.95071    35515.542 
  986100    301.02771   -1458.1075    505.45447    413.04735   -764.40348    35515.542 
  986200    311.39839   -1466.0345    481.41134    428.12683   -728.54402    35515.542 
  986300    307.85351   -1489.5602    485.30266    392.41005   -833.27479    35515.542 
  986400    285.11153   -1497.3797    493.84294    289.95526    -875.0845    35515.542 
  986500    304.12426     -1506.61    470.70244    343.84123    520.62687    35515.542 
  986600    305.38698   -1436.6082    479.13337    428.00263   -541.76773    35515.542 
  986700    293.59456   -1416.5877    494.02255    409.41252   -344.34273    35515.542 
  986800    308.33705   -1438.0735    496.12108    456.90892    27.234663    35515.542 
  986900    303.96226    -1441.002    471.46747    409.47931   -234.26634    35515.542 
  987000    301.76673   -1451.8494    514.60857     431.8123   -34.906639    35515.542 
  987100    302.70502   -1462.8046    494.97204    405.47744    244.75664    35515.542 
  987200    291.87626   -1511.2189    488.25104    301.21428    314.54702    35515.542 
  987300    294.12783   -1518.6829    514.47895    330.19314   -660.01717    35515.542 
  987400    299.67973   -1485.9391    489.01547    362.66124   -543.25096    35515.542 
  987500    298.77714    -1512.821    479.31538    321.98439    362.31271    35515.542 
  987600    291.03269   -1546.7112    502.39994    276.04376    507.34337    35515.542 
  987700    302.59776   -1524.9484    492.87588    340.75087   -301.56225    35515.542 
  987800    312.60119   -1495.1683    480.22567    403.26425   -255.83671    35515.542 
  987900    292.92945   -1506.7388    496.75406    318.97554   -606.70498    35515.542 
  988000    296.84543   -1517.3046    475.86783    305.28943   -922.16524    35515.542 
  988100    296.54386   -1484.3157    499.52157    360.56397   -602.56031    35515.542 
  988200    311.61629   -1485.7165    496.52111    424.54318   -3.5259363    35515.542 
  988300    289.50937    -1511.012    494.66877    297.10084    -586.4931    35515.542 
  988400    300.27142   -1532.0387    478.91969    309.15029   -662.67372    35515.542 
  988500    301.75775   -1506.3754    472.88657    335.52362   -324.80718    35515.542 
  988600     303.9614   -1486.0726    487.04285    379.98021   -198.51095    35515.542 
  988700    308.91435   -1460.9296    491.29514    431.84595   -534.62161    35515.542 
  988800    298.05955   -1495.4677    479.70748    336.47424   -37.916974    35515.542 
  988900    300.39947   -1505.1596    483.92187    341.61246   -456.07455    35515.542 
  989000    310.40647   -1498.9573    502.54284    411.83538    -252.1781    35515.542 
  989100    310.44956   -1544.9506    494.41458    357.90936    35.420889    35515.542 
  989200    306.10233   -1531.2994    482.37095    339.79444   -178.88862    35515.542 
  989300    311.20305   -1504.6541    497.90495    405.11463     9.040257    35515.542 
  989400    295.98968   -1498.0641    489.98334    334.76313   -176.56552    35515.542 
  989500    301.05613   -1473.4205    479.71696    372.12577   -47.387536    35515.542 
  989600    304.59514   -1486.3506    480.14666    375.68115   -248.54889    35515.542 
  989700    294.62547   -1484.4778    474.80404    326.98098   -138.53179    35515.542 
  989800    311.92729   -1509.8025    463.73102      369.078    227.18521    35515.542 
  989900    296.99473   -1509.1609    494.31722    332.55993    730.01941    35515.542 
  990000    297.29699   -1483.4504    514.96744    380.29191    1130.4316    35515.542 
  990100    308.64776    -1437.088     516.8215    480.00446    394.11372    35515.542 
  990200    307.64023   -1501.0511    493.29172    387.94064   -340.02101    35515.542 
  990300     301.0844   -1440.0889    482.79352    408.66217    -20.84895    35515.542 
  990400    301.41963   -1448.0946     504.8094    424.19322   -762.65223    35515.542 
  990500    301.32514   -1438.3519    474.16342    402.86126   -495.20378    35515.542 
  990600    300.09367   -1449.5382    494.61638    406.54102   -799.73191    35515.542 
  990700    283.44215   -1457.7113    500.39753    328.60451   -304.70428    35515.542 
  990800    304.34133    -1487.933    486.18838    378.98898    363.69464    35515.542 
  990900    305.40222   -1487.8274    478.63576    376.35498     577.5486    35515.542 
  991000    309.80805   -1497.1161    491.63535    400.05424    555.30851    35515.542 
  991100    297.27508   -1481.8558    476.90388    343.72351    180.34298    35515.542 
  991200    293.67339   -1476.4393    521.07476    376.97086    33.624971    35515.542 
  991300    301.31765    -1470.614     486.2989     382.7007     329.0762    35515.542 
  991400    299.73285   -1448.6327    503.39726    414.59039    110.98195    35515.542 
  991500    296.16421   -1483.8544    497.80911    357.59037    352.35661    35515.542 
  991600    305.28191   -1453.5227    480.97692    412.45506     468.7381    35515.542 
  991700    298.02874   -1488.0014     487.3601    351.45336      16.5408    35515.542 
  991800      299.461   -1500.9484    468.97394    326.61808   -140.52822    35515.542 
  991900    300.36415   -1489.2781    493.59123    367.00313   -146.05255    35515.542 
  992000     309.3648   -1462.8736    489.23397    429.88441    418.43052    35515.542 
  992100    307.55533   -1445.6943    478.87735    428.49785   -365.28788    35515.542 
  992200    291.25792   -1455.4607    500.93617    366.85235   -313.34744    35515.542 
  992300    291.02902   -1442.8087    513.11137    390.64111   -446.04675    35515.542 
  992400    295.49382   -1431.0887    503.54834    413.05395   -10.395025    35515.542 
  992500    299.95813   -1468.8809    486.26109    378.22808   -509.99288    35515.542 
  992600    311.53717   -1454.3355    499.59879    458.64291   -292.40526    35515.542 
  992700    291.57869   -1469.0491    480.79545    334.57844   -827.76443    35515.542 
  992800    294.92842   -1486.7278    467.03114    318.33248   -1370.7831    35515.542 
  992900    301.18126   -1467.7245    506.06023    404.73266   -988.66829    35515.542 
  993000    299.36286   -1428.8569    478.49235    407.78275    153.61033    35515.542 
  993100    298.65114   -1433.0242    505.67539    427.56962   -101.74419    35515.542 
  993200    306.60286   -1475.1186    508.45371    424.32882    308.52954    35515.542 
  993300    290.45349   -1427.8857    513.13646    402.97806    444.49229    35515.542 
  993400    303.77699   -1444.3369    496.54605    430.38247    124.36758    35515.542 
  993500    301.94899   -1474.7306    521.44178    416.59118    340.92236    35515.542 
  993600    306.06134   -1490.7886    503.66838    401.41671    451.46661    35515.542 
  993700    305.22228   -1459.1021     503.8259    429.45406    142.78297    35515.542 
  993800    303.81801   -1477.7546    495.48885    396.09368    335.35457    35515.542 
  993900    296.92347   -1478.7674     454.9658     323.2787   -548.70335    35515.542 
  994000    297.53994   -1464.0599    491.49296    377.31011    -498.3488    35515.542 
  994100    289.71558   -1486.8322    493.51166    321.05906   -559.87244    35515.542 
  994200    299.78008   -1527.2851    501.61364    334.36864   -547.98418    35515.542 
  994300    305.63424   -1501.8566    495.97781    380.72043    132.33459    35515.542 
  994400    301.97866    -1514.907    473.64772    328.75531   -74.189433    35515.542 
  994500    306.37194   -1483.3274    481.35219    387.97088   -307.53559    35515.542 
  994600    294.41224   -1481.3938    511.09677    365.39028   -41.664322    35515.542 
  994700    290.35148    -1528.465    476.04226    264.84174   -108.62905    35515.542 
  994800    294.12739   -1514.6283    475.55497    295.32179    273.43295    35515.542 
  994900      315.799   -1464.9901     495.7862    463.51071    224.07454    35515.542 
  995000    300.60421   -1446.6992    511.71354    428.79337   -108.33065    35515.542 
  995100     297.8356   -1464.3898    488.12733    374.95595   -208.37912    35515.542 
  995200    300.01912   -1501.2598    478.74285    338.60764   -638.26591    35515.542 
  995300    299.12369   -1478.1935    480.63095    359.49965    122.68643    35515.542 
  995400    294.50372   -1490.0739    488.26972    334.29818    253.40028    35515.542 
  995500    293.55881   -1500.3468    470.07885    301.54763     229.9169    35515.542 
  995600    300.72168   -1481.2638    504.49617    387.54437   -6.1937286    35515.542 
  995700    293.76866   -1451.4531    500.80943    382.12394   -335.59065    35515.542 
  995800    288.27876    -1446.253    477.08986    338.69787    115.52916    35515.542 
  995900    312.94322   -1511.7993    497.06236    405.02164    309.21079    35515.542 
  996000    295.91321   -1505.3479    495.84965    332.99872   -182.32114    35515.542 
  996100    302.70703    -1458.801    470.75941     385.2775   -131.16724    35515.542 
  996200    294.17167   -1470.7348    507.92199    371.78311    219.97895    35515.542 
  996300    298.39654   -1460.9325    504.69956    397.53034    31.453349    35515.542 
  996400      299.136   -1455.5819    518.26246    419.79868    497.44004    35515.542 
  996500    295.26164   -1466.5228     494.6156    367.63367   -19.628353    35515.542 
  996600    298.88944   -1461.6522    496.64868    390.99593    492.79494    35515.542 
  996700    309.16762   -1448.2233    504.58718    458.99329   -38.216154    35515.542 
  996800    297.47026   -1443.2874    491.98742    398.26098    137.89909    35515.542 
  996900    298.21666    -1407.215    511.62771       457.36   -47.286337    35515.542 
  997000    288.42359   -1449.8027    505.97794    364.69333   -871.56264    35515.542 
  997100    299.69623   -1449.6283    500.86883    410.90028   -641.05169    35515.542 
  997200    303.52334    -1486.155    493.71737    384.58492    -724.9562    35515.542 
  997300    308.52273   -1472.8492    514.92611    441.78066   -373.98484    35515.542 
  997400    292.87843   -1470.8034    485.36624    343.29166   -297.15975    35515.542 
  997500     302.8185   -1491.9747    526.52612    408.37627   -486.50275    35515.542 
  997600    301.42174   -1513.8698    478.63175       332.25   -49.498485    35515.542 
  997700    303.19178   -1489.5996    511.41713    397.33582   -169.41067    35515.542 
  997800    313.22733    -1455.569    503.29653    468.77503   -112.80681    35515.542 
  997900    302.85396   -1422.2002     503.1228    454.90826    439.52472    35515.542 
  998000     310.3891   -1479.6597    512.03401    440.54535    147.56343    35515.542 
  998100    302.80881   -1487.9846    482.95672    368.75302    235.03536    35515.542 
  998200     310.0048   -1424.4951    534.70551    516.63795    164.89563    35515.542 
  998300    304.15985   -1472.4119    492.29132     399.7897   -193.37637    35515.542 
  998400    298.49119   -1428.2651    500.92716     426.8548    115.78528    35515.542 
  998500    293.77041   -1453.8986    532.34387    411.22082    204.59943    35515.542 
  998600    300.10596   -1464.7266    515.07457    411.86654   -97.684149    35515.542 
  998700    296.25175   -1459.8078     481.9205     366.1456   -281.04715    35515.542 
  998800     300.0008   -1467.0895    513.85949    407.81153   -158.79059    35515.542 
  998900    297.69672   -1481.9528    513.70439    382.33993    705.26206    35515.542 
  999000     296.5573   -1470.4248     498.9658    373.96005    146.65333    35515.542 
  999100    292.13878   -1448.0984    494.50489    371.77963    260.83888    35515.542 
  999200    302.01955   -1461.8059    475.76058    384.15484   -124.71094    35515.542 
  999300    305.35186   -1472.5361    508.60658    421.38867   -759.34772    35515.542 
  999400    298.58099   -1479.8291    507.74198    382.51294   -381.08213    35515.542 
  999500    297.31463    -1490.879    489.19814    347.17405    9.7866707    35515.542 
  999600    305.87085   -1481.9152    514.94564    420.70314    13.574201    35515.542 
  999700    294.59697   -1485.2311    504.83043    356.12477    274.29318    35515.542 
  999800    308.38778   -1483.5367    485.90496    401.45977    609.34589    35515.542 
  999900    305.89721   -1466.8439    473.09915    394.04756    79.426735    35515.542 
 1000000    292.78384   -1479.5866    474.94817    323.66124   -81.925865    35515.542 
 1000100    293.12172   -1501.2122    478.04546    306.66578    258.97697    35515.542 
 1000200    306.75125   -1527.9055    472.52076    336.28214    164.79815    35515.542 
 1000300    301.06269   -1520.6553    515.46261    360.66635    515.83135    35515.542 
 1000400     302.4156   -1544.4185    501.96936    329.54779   -37.768832    35515.542 
 1000500    294.18674    -1540.226    483.37069    277.80903   -14.661186    35515.542 
 1000600    309.55583   -1495.4054    467.86224    376.84757   -154.17015    35515.542 
 1000700    293.12135   -1455.1992    488.35235    362.98405    343.92479    35515.542 
 1000800    309.72576   -1521.6982    493.82505     377.2885     509.2307    35515.542 
 1000900    302.09122   -1541.5546    486.26658    315.23729    257.27167    35515.542 
 1001000     295.9692   -1509.6936    482.68919    315.74656    154.40628    35515.542 
 1001100      301.561   -1502.9806    501.25373    366.39296    99.151676    35515.542 
 1001200    295.47483   -1481.3917    475.60041    334.71678   -86.845072    35515.542 
 1001300    302.06355    -1512.074    512.68487    371.01066    -215.6439    35515.542 
 1001400    304.07779   -1540.0603     523.9168    363.39441   -254.94818    35515.542 
 1001500     317.8251   -1502.1125     499.4019    439.19607    342.49092    35515.542 
 1001600    297.17449   -1480.5179     504.2239    371.92511    -249.9507    35515.542 
 1001700    296.29638   -1498.8745    455.32378    300.68458   -56.215468    35515.542 
 1001800    290.01226   -1441.0121    512.66215    387.37559   -216.30029    35515.542 
 1001900    288.92958   -1475.3788    508.68324     344.1181    -89.46337    35515.542 
 1002000     291.8121   -1446.9872    489.62433    366.52819    105.96234    35515.542 
 1002100     299.2895    -1480.386    487.65851    365.08692    548.25151    35515.542 
 1002200    292.20304   -1482.6605    492.39378    335.39798    361.39619    35515.542 
 1002300    311.07726   -1473.2369    504.55489    442.61105     1005.683    35515.542 
 1002400    295.47492   -1503.0352    464.50684    301.98022     817.0924    35515.542 
 1002500    303.91466   -1512.0312    476.99985    343.76655     251.5581    35515.542 
 1002600    292.39409   -1531.1864    485.80512    281.15012    604.78065    35515.542 
 1002700    306.67707   -1501.4102    503.61903    393.53921      214.722    35515.542 
 1002800     295.7691   -1467.3536    482.88724    357.37679   -353.03261    35515.542 
 1002900    310.28674   -1452.1449    502.73613    458.29791     -376.309    35515.542 
 1003000     292.5933   -1476.3709    478.14364    329.20793    -68.69257    35515.542 
 1003100    294.32585   -1433.5151    469.37914    371.15947    31.238647    35515.542 
 1003200    294.20653   -1438.3828    510.12383    406.49511    129.45818    35515.542 
 1003300    296.28622   -1463.8019     488.2072    368.59448   -97.022504    35515.542 
 1003400     300.4287    -1482.787    478.27839    358.47418    285.46421    35515.542 
 1003500    307.95352   -1449.4391    487.33158    435.01387     119.8325    35515.542 
 1003600    301.10823   -1469.0769    482.10985    379.09861     142.9853    35515.542 
 1003700    292.14156   -1489.3486    477.20543    313.24257   -250.55164    35515.542 
 1003800     302.1866   -1493.6072    483.05442    360.40526   -157.84254    35515.542 
 1003900    293.63071   -1522.9717    482.09703    291.26701    328.79545    35515.542 
 1004000    297.82505   -1496.0317    474.78097    329.91982   -35.038385    35515.542 
 1004100    294.13369   -1457.7967    501.90754    378.53446    30.570873    35515.542 
 1004200    303.49651   -1510.4319    493.76292    360.23187    62.077055    35515.542 
 1004300    298.29138   -1518.3215    450.35205    285.31679    142.68466    35515.542 
 1004400    304.73249   -1497.8577    503.74103    388.39155    499.04501    35515.542 
 1004500    296.36514   -1501.0542    495.10831    338.60136    468.22884    35515.542 
 1004600    309.75633   -1489.7779     486.8888    402.41115    912.51356    35515.542 
 1004700    297.87105   -1478.2413    467.19487    340.33287    663.48674    35515.542 
 1004800    292.55762   -1519.0963    472.69735    280.87434    863.55883    35515.542 
 1004900    298.02822   -1494.3805    473.84589    331.55772    303.05604    35515.542 
 1005000    296.75608   -1508.2086    479.48911    317.60143    117.18026    35515.542 
 1005100    311.80175   -1512.7118     481.1776    383.04576    436.14099    35515.542 
 1005200    301.18527   -1507.3296    485.29458    344.38023    -43.51911    35515.542 
 1005300    296.22612   -1486.1728    471.15617    328.89995    -130.6627    35515.542 
 1005400    302.54535   -1475.5938    473.71321      370.705   -291.40605    35515.542 
 1005427    290.83767   -1484.3303    478.30607    313.44599    422.89027    35515.542 
Loop time of 593.778 on 32 procs for 1000000 steps with 1523 atoms

Performance: 145.509 ns/day, 0.165 hours/ns, 1684.131 timesteps/s
100.0% CPU use with 32 MPI tasks x no OpenMP threads

MPI task timing breakdown:
Section |  min time  |  avg time  |  max time  |%varavg| %total
---------------------------------------------------------------
Pair    | 260.16     | 286.02     | 309.89     |  82.0 | 48.17
Bond    | 1.5071     | 1.6493     | 1.9276     |   7.2 |  0.28
Neigh   | 38.791     | 38.861     | 38.927     |   0.8 |  6.54
Comm    | 229.8      | 253.79     | 279.68     |  87.0 | 42.74
Output  | 0.38714    | 0.40285    | 0.82419    |  11.9 |  0.07
Modify  | 9.7141     | 9.9167     | 10.133     |   3.5 |  1.67
Other   |            | 3.136      |            |       |  0.53

Nlocal:        47.5938 ave          76 max          21 min
Histogram: 2 1 4 5 5 5 4 3 2 1
Nghost:        2090.28 ave        2172 max        1995 min
Histogram: 2 2 2 2 5 7 4 2 2 4
Neighs:        5576.44 ave       11754 max        1963 min
Histogram: 3 4 5 7 7 1 3 0 1 1

Total # of neighbors = 178446
Ave neighs/atom = 117.16743
Ave special neighs/atom = 2.0499015
Neighbor list builds = 49839
Dangerous builds = 0
The system volume is 35515.5423586585
Lattice vectors
32.8704878989801 0 0
0 32.8704878989801 0
0 0 32.8704878989801
Total wall time: 0:09:58
