LAMMPS data file
 1508 atoms
 1007 bonds
 512 angles
 9 dihedrals
 0 impropers
 4 atom types
 3 bond types
 2 angle types
 1 dihedral types
 1 improper types
 0 15 xlo xhi
 0 15 ylo yhi
 0 15 zlo zhi
 0 0 0 xy xz yz

# Atom types
#
# 1 C_3
# 2 H_
# 3 H__HB
# 4 O_3

# Bond Coeffs
#
# 1 C_3*C_3
# 2 C_3*H_
# 3 O_3*H__HB

# Angle Coeffs
#
# 1 C_3
# 2 O_3

# Dihedral Coeffs
#
# 1 A1

# Inversion Coeffs
#
# 1 1

 Masses

 1 12.01
 2 1.01
 3 1.01
 4 16

 Atoms # full

1 1 1 0 15.3406613842828 8.07718026955676 9.46509859933517
2 1 1 0 14.444938952405 8.67002047393801 10.5769794909329
3 1 2 0 15.3359318381543 6.98750677874764 9.53136748208786
4 1 2 0 14.9664092565655 8.3664835631053 8.48068494682874
5 1 2 0 16.370849420669 8.42321428951695 9.5691318955284
6 1 2 0 13.4504656367972 8.22613143692811 10.4769791041015
7 1 2 0 14.8327235676537 8.36543355210295 11.5526677501753
8 1 2 0 14.3685100830463 10.1562116871967 10.5248985389324
9 2 3 0 0.832005289122462 1.40684232971631 1.05135726509616
10 2 4 0 1.79200528912246 1.40684232971631 1.05135726509616
11 2 3 0 2.03200528912246 0.47684232971631 1.05135726509616
12 3 3 0 1.73111624593847 3.39155719190836 14.2219777638093
13 3 4 0 2.69111624593847 3.39155719190836 14.2219777638093
14 3 3 0 2.93111624593847 2.46155719190836 14.2219777638093
15 4 3 0 3.68314125269651 2.30181941221468 11.3634377822746
16 4 4 0 4.64314125269651 2.30181941221468 11.3634377822746
17 4 3 0 4.88314125269651 1.37181941221468 11.3634377822746
18 5 3 0 5.48542750577442 4.29862191475928 13.4955367713701
19 5 4 0 6.44542750577442 4.29862191475928 13.4955367713701
20 5 3 0 6.68542750577442 3.36862191475928 13.4955367713701
21 6 3 0 12.6810618331376 1.29326322506182 13.1222343246918
22 6 4 0 13.6410618331376 1.29326322506182 13.1222343246918
23 6 3 0 13.8810618331376 0.363263225061819 13.1222343246918
24 7 3 0 0.430986371794716 8.96914780995809 3.10378069407307
25 7 4 0 1.39098637179472 8.96914780995809 3.10378069407307
26 7 3 0 1.63098637179472 8.03914780995809 3.10378069407307
27 8 3 0 4.98626602624543 13.4185141515359 10.2904433256481
28 8 4 0 5.94626602624543 13.4185141515359 10.2904433256481
29 8 3 0 6.18626602624543 12.4885141515359 10.2904433256481
30 9 3 0 14.1038491045777 2.50230813789181 1.75083475420251
31 9 4 0 15.0638491045777 2.50230813789181 1.75083475420251
32 9 3 0 15.3038491045777 1.57230813789181 1.75083475420251
33 10 3 0 11.0565110917389 1.64348977193236 10.2805170533247
34 10 4 0 12.0165110917389 1.64348977193236 10.2805170533247
35 10 3 0 12.2565110917389 0.713489771932363 10.2805170533247
36 11 3 0 5.10958001992665 14.4513023229688 4.92509588948451
37 11 4 0 6.06958001992665 14.4513023229688 4.92509588948451
38 11 3 0 6.30958001992665 13.5213023229688 4.92509588948451
39 12 3 0 10.8895582873095 3.2388798791822 12.0837007253431
40 12 4 0 11.8495582873095 3.2388798791822 12.0837007253431
41 12 3 0 12.0895582873095 2.3088798791822 12.0837007253431
42 13 3 0 12.9851064055413 13.10757773038 3.08395890751854
43 13 4 0 13.9451064055413 13.10757773038 3.08395890751854
44 13 3 0 14.1851064055413 12.17757773038 3.08395890751854
45 14 3 0 6.47375303713605 14.802807983188 9.69268344459124
46 14 4 0 7.43375303713605 14.802807983188 9.69268344459124
47 14 3 0 7.67375303713605 13.872807983188 9.69268344459124
48 15 3 0 8.61622559532523 7.92217639315873 6.86006295494735
49 15 4 0 9.57622559532523 7.92217639315873 6.86006295494735
50 15 3 0 9.81622559532523 6.99217639315873 6.86006295494735
51 16 3 0 4.28959241297096 11.8415468003973 8.17008782993071
52 16 4 0 5.24959241297096 11.8415468003973 8.17008782993071
53 16 3 0 5.48959241297096 10.9115468003973 8.17008782993071
54 17 3 0 -0.719151363736019 6.41067445784807 6.51658591115847
55 17 4 0 0.240848636263981 6.41067445784807 6.51658591115847
56 17 3 0 0.480848636263981 5.48067445784807 6.51658591115847
57 18 3 0 6.35686405163258 4.42939176148735 14.8119004396722
58 18 4 0 7.31686405163258 4.42939176148735 14.8119004396722
59 18 3 0 7.55686405163258 3.49939176148735 14.8119004396722
60 19 3 0 1.16076503458433 10.0694899090473 10.2024632936809
61 19 4 0 2.12076503458433 10.0694899090473 10.2024632936809
62 19 3 0 2.36076503458433 9.13948990904726 10.2024632936809
63 20 3 0 11.8547653422877 11.6795502956398 12.8915796184447
64 20 4 0 12.8147653422877 11.6795502956398 12.8915796184447
65 20 3 0 13.0547653422877 10.7495502956398 12.8915796184447
66 21 3 0 5.88437623970211 9.06352345407009 14.6755531278905
67 21 4 0 6.84437623970211 9.06352345407009 14.6755531278905
68 21 3 0 7.08437623970211 8.13352345407009 14.6755531278905
69 22 3 0 9.90653572764248 14.7267669210583 5.91913309763186
70 22 4 0 10.8665357276425 14.7267669210583 5.91913309763186
71 22 3 0 11.1065357276425 13.7967669210583 5.91913309763186
72 23 3 0 3.63955789871514 4.78770537808537 5.37130660610273
73 23 4 0 4.59955789871514 4.78770537808537 5.37130660610273
74 23 3 0 4.83955789871514 3.85770537808537 5.37130660610273
75 24 3 0 2.85694328064099 8.93935567623936 0.468050495255738
76 24 4 0 3.81694328064099 8.93935567623936 0.468050495255738
77 24 3 0 4.05694328064099 8.00935567623936 0.468050495255738
78 25 3 0 -0.218314334778115 6.39591102412902 5.69493854418397
79 25 4 0 0.741685665221885 6.39591102412902 5.69493854418397
80 25 3 0 0.981685665221885 5.46591102412902 5.69493854418397
81 26 3 0 3.72204773521051 9.30395691463724 7.52465817611665
82 26 4 0 4.68204773521051 9.30395691463724 7.52465817611665
83 26 3 0 4.92204773521051 8.37395691463724 7.52465817611665
84 27 3 0 4.73199723215774 7.59068253025413 8.61173846642487
85 27 4 0 5.69199723215774 7.59068253025413 8.61173846642487
86 27 3 0 5.93199723215774 6.66068253025413 8.61173846642487
87 28 3 0 12.3628507966362 6.66929313139059 3.02603598916903
88 28 4 0 13.3228507966362 6.66929313139059 3.02603598916903
89 28 3 0 13.5628507966362 5.73929313139059 3.02603598916903
90 29 3 0 11.9658227723278 6.58350342343561 0.512088815448806
91 29 4 0 12.9258227723278 6.58350342343561 0.512088815448806
92 29 3 0 13.1658227723278 5.65350342343561 0.512088815448806
93 30 3 0 5.75911400184967 9.12214114138857 6.75308987265453
94 30 4 0 6.71911400184967 9.12214114138857 6.75308987265453
95 30 3 0 6.95911400184967 8.19214114138857 6.75308987265453
96 31 3 0 9.43418963972479 14.0842713280022 1.19028896209784
97 31 4 0 10.3941896397248 14.0842713280022 1.19028896209784
98 31 3 0 10.6341896397248 13.1542713280022 1.19028896209784
99 32 3 0 14.2429530147649 10.7929761513975 8.71729754609987
100 32 4 0 15.2029530147649 10.7929761513975 8.71729754609987
101 32 3 0 15.4429530147649 9.86297615139745 8.71729754609987
102 33 3 0 3.42428608026356 0.783857613978908 14.1333382262383
103 33 4 0 4.38428608026356 0.783857613978908 14.1333382262383
104 33 3 0 4.62428608026356 -0.146142386021093 14.1333382262383
105 34 3 0 3.86949142252095 4.62478915852494 5.79385073273443
106 34 4 0 4.82949142252095 4.62478915852494 5.79385073273443
107 34 3 0 5.06949142252095 3.69478915852495 5.79385073273443
108 35 3 0 5.51947132844478 7.55581137532368 7.02463223598897
109 35 4 0 6.47947132844478 7.55581137532368 7.02463223598897
110 35 3 0 6.71947132844478 6.62581137532368 7.02463223598897
111 36 3 0 8.43650727110915 2.41719859693199 3.10679799411446
112 36 4 0 9.39650727110915 2.41719859693199 3.10679799411446
113 36 3 0 9.63650727110915 1.48719859693199 3.10679799411446
114 37 3 0 12.0555994163454 14.9289310390037 12.69468548242
115 37 4 0 13.0155994163454 14.9289310390037 12.69468548242
116 37 3 0 13.2555994163454 13.9989310390037 12.69468548242
117 38 3 0 3.15007636833005 3.43358518247493 5.42494670720771
118 38 4 0 4.11007636833005 3.43358518247493 5.42494670720771
119 38 3 0 4.35007636833005 2.50358518247493 5.42494670720771
120 39 3 0 10.295216675587 3.41676910798065 3.29203615779988
121 39 4 0 11.255216675587 3.41676910798065 3.29203615779988
122 39 3 0 11.495216675587 2.48676910798065 3.29203615779988
123 40 3 0 2.56331121476367 6.02251439629123 7.872098662192
124 40 4 0 3.52331121476367 6.02251439629123 7.872098662192
125 40 3 0 3.76331121476367 5.09251439629123 7.872098662192
126 41 3 0 2.63720687638968 4.69360172673129 7.3123206209857
127 41 4 0 3.59720687638968 4.69360172673129 7.3123206209857
128 41 3 0 3.83720687638968 3.76360172673129 7.3123206209857
129 42 3 0 10.8753637752682 14.1229791419487 8.61620732699521
130 42 4 0 11.8353637752682 14.1229791419487 8.61620732699521
131 42 3 0 12.0753637752682 13.1929791419487 8.61620732699521
132 43 3 0 7.50973381960765 1.22174702858552 2.49619061825797
133 43 4 0 8.46973381960765 1.22174702858552 2.49619061825797
134 43 3 0 8.70973381960765 0.291747028585523 2.49619061825797
135 44 3 0 14.1978326677065 2.28106436011381 13.3486805611756
136 44 4 0 15.1578326677065 2.28106436011381 13.3486805611756
137 44 3 0 15.3978326677065 1.35106436011381 13.3486805611756
138 45 3 0 5.39284195329063 8.55878642335534 14.4484959973488
139 45 4 0 6.35284195329063 8.55878642335534 14.4484959973488
140 45 3 0 6.59284195329063 7.62878642335534 14.4484959973488
141 46 3 0 13.5431415487267 6.95722289773636 13.6802967195399
142 46 4 0 14.5031415487267 6.95722289773636 13.6802967195399
143 46 3 0 14.7431415487267 6.02722289773636 13.6802967195399
144 47 3 0 -0.637932377429679 14.8631208161265 12.0454432605766
145 47 4 0 0.322067622570321 14.8631208161265 12.0454432605766
146 47 3 0 0.562067622570321 13.9331208161265 12.0454432605766
147 48 3 0 10.9682875445299 9.41750158363953 12.2850088065024
148 48 4 0 11.9282875445299 9.41750158363953 12.2850088065024
149 48 3 0 12.1682875445299 8.48750158363953 12.2850088065024
150 49 3 0 6.4334837235231 5.21507410024293 12.7457678527571
151 49 4 0 7.3934837235231 5.21507410024293 12.7457678527571
152 49 3 0 7.6334837235231 4.28507410024293 12.7457678527571
153 50 3 0 1.10045251247473 14.9703899192996 13.0911415012088
154 50 4 0 2.06045251247473 14.9703899192996 13.0911415012088
155 50 3 0 2.30045251247473 14.0403899192996 13.0911415012088
156 51 3 0 6.58543206562288 13.5884967555199 7.4533679347951
157 51 4 0 7.54543206562288 13.5884967555199 7.4533679347951
158 51 3 0 7.78543206562288 12.6584967555199 7.4533679347951
159 52 3 0 2.60341302302666 6.11054743331857 0.364988262299448
160 52 4 0 3.56341302302666 6.11054743331857 0.364988262299448
161 52 3 0 3.80341302302666 5.18054743331857 0.364988262299448
162 53 3 0 10.4622526634205 11.5188152079377 0.541594546521083
163 53 4 0 11.4222526634205 11.5188152079377 0.541594546521083
164 53 3 0 11.6622526634205 10.5888152079377 0.541594546521083
165 54 3 0 13.8369596404675 6.93585269776173 9.7771177708637
166 54 4 0 14.7969596404675 6.93585269776173 9.7771177708637
167 54 3 0 15.0369596404675 6.00585269776173 9.7771177708637
168 55 3 0 3.369581243461 12.2114818628784 8.97397170541808
169 55 4 0 4.329581243461 12.2114818628784 8.97397170541808
170 55 3 0 4.569581243461 11.2814818628784 8.97397170541808
171 56 3 0 11.3093998962734 2.95123994857073 8.97960979957134
172 56 4 0 12.2693998962734 2.95123994857073 8.97960979957134
173 56 3 0 12.5093998962734 2.02123994857073 8.97960979957134
174 57 3 0 0.926362028550357 0.72006053914316 3.71343791834079
175 57 4 0 1.88636202855036 0.72006053914316 3.71343791834079
176 57 3 0 2.12636202855036 -0.20993946085684 3.71343791834079
177 58 3 0 6.20601378425024 9.87501924316399 1.51147533673793
178 58 4 0 7.16601378425024 9.87501924316399 1.51147533673793
179 58 3 0 7.40601378425024 8.94501924316399 1.51147533673793
180 59 3 0 -0.163280228879303 4.73282072152011 2.1971357264556
181 59 4 0 0.796719771120697 4.73282072152011 2.1971357264556
182 59 3 0 1.0367197711207 3.80282072152011 2.1971357264556
183 60 3 0 7.94887612268329 3.43610614812002 10.3436474874616
184 60 4 0 8.90887612268329 3.43610614812002 10.3436474874616
185 60 3 0 9.14887612268329 2.50610614812002 10.3436474874616
186 61 3 0 13.384727699887 13.4810469734389 4.94708601152524
187 61 4 0 14.344727699887 13.4810469734389 4.94708601152524
188 61 3 0 14.584727699887 12.5510469734389 4.94708601152524
189 62 3 0 10.9887510495912 4.67770490254275 14.8672836658079
190 62 4 0 11.9487510495912 4.67770490254275 14.8672836658079
191 62 3 0 12.1887510495912 3.74770490254275 14.8672836658079
192 63 3 0 1.65088247900829 10.7189481430128 3.98989426670596
193 63 4 0 2.61088247900829 10.7189481430128 3.98989426670596
194 63 3 0 2.85088247900829 9.78894814301282 3.98989426670596
195 64 3 0 6.98730798016302 4.28562990896404 11.7480600625277
196 64 4 0 7.94730798016302 4.28562990896404 11.7480600625277
197 64 3 0 8.18730798016302 3.35562990896404 11.7480600625277
198 65 3 0 7.79782060693949 5.98124325316399 8.51114262244664
199 65 4 0 8.75782060693949 5.98124325316399 8.51114262244664
200 65 3 0 8.9978206069395 5.05124325316399 8.51114262244664
201 66 3 0 9.61211565809324 11.5970362040121 10.6555438321084
202 66 4 0 10.5721156580932 11.5970362040121 10.6555438321084
203 66 3 0 10.8121156580932 10.6670362040121 10.6555438321084
204 67 3 0 0.455862840609625 6.54897911165841 3.63550481968559
205 67 4 0 1.41586284060962 6.54897911165841 3.63550481968559
206 67 3 0 1.65586284060962 5.61897911165841 3.63550481968559
207 68 3 0 7.10619770499878 11.1466583753377 6.56624536262825
208 68 4 0 8.06619770499878 11.1466583753377 6.56624536262825
209 68 3 0 8.30619770499878 10.2166583753377 6.56624536262825
210 69 3 0 11.368396550389 2.20103197189979 8.03585538757034
211 69 4 0 12.328396550389 2.20103197189979 8.03585538757034
212 69 3 0 12.568396550389 1.27103197189979 8.03585538757034
213 70 3 0 1.52028428667225 9.2122303535603 14.2700787435751
214 70 4 0 2.48028428667225 9.2122303535603 14.2700787435751
215 70 3 0 2.72028428667225 8.2822303535603 14.2700787435751
216 71 3 0 3.99665463759564 8.50669913966209 9.07810833421536
217 71 4 0 4.95665463759564 8.50669913966209 9.07810833421536
218 71 3 0 5.19665463759564 7.57669913966209 9.07810833421536
219 72 3 0 8.61705325587653 10.4344044385385 2.74158947286196
220 72 4 0 9.57705325587653 10.4344044385385 2.74158947286196
221 72 3 0 9.81705325587653 9.50440443853848 2.74158947286196
222 73 3 0 13.9873662257753 13.8956578836683 0.146505434531718
223 73 4 0 14.9473662257753 13.8956578836683 0.146505434531718
224 73 3 0 15.1873662257753 12.9656578836683 0.146505434531718
225 74 3 0 5.90397932843305 13.0108687076159 11.1187470308505
226 74 4 0 6.86397932843305 13.0108687076159 11.1187470308505
227 74 3 0 7.10397932843305 12.0808687076159 11.1187470308505
228 75 3 0 1.46288261443377 6.74618488684297 1.19354068301618
229 75 4 0 2.42288261443377 6.74618488684297 1.19354068301618
230 75 3 0 2.66288261443377 5.81618488684297 1.19354068301618
231 76 3 0 -0.18545971208252 0.483106113215908 3.86775452876464
232 76 4 0 0.77454028791748 0.483106113215908 3.86775452876464
233 76 3 0 1.01454028791748 -0.446893886784092 3.86775452876464
234 77 3 0 5.10569691818208 4.87658360781148 7.92504681972787
235 77 4 0 6.06569691818208 4.87658360781148 7.92504681972787
236 77 3 0 6.30569691818208 3.94658360781148 7.92504681972787
237 78 3 0 -0.50715035947971 9.42120230215602 11.8074074015021
238 78 4 0 0.45284964052029 9.42120230215602 11.8074074015021
239 78 3 0 0.69284964052029 8.49120230215602 11.8074074015021
240 79 3 0 6.62803557861596 8.94878343836404 3.92252782476135
241 79 4 0 7.58803557861596 8.94878343836404 3.92252782476135
242 79 3 0 7.82803557861596 8.01878343836404 3.92252782476135
243 80 3 0 4.6056706497632 1.56050901435316 8.26348825357854
244 80 4 0 5.5656706497632 1.56050901435316 8.26348825357854
245 80 3 0 5.8056706497632 0.630509014353156 8.26348825357854
246 81 3 0 8.26341634660028 0.641307648448274 13.3042944199406
247 81 4 0 9.22341634660028 0.641307648448274 13.3042944199406
248 81 3 0 9.46341634660028 -0.288692351551727 13.3042944199406
249 82 3 0 9.82667212651111 1.79318581632338 13.2234104932286
250 82 4 0 10.7866721265111 1.79318581632338 13.2234104932286
251 82 3 0 11.0266721265111 0.863185816323385 13.2234104932286
252 83 3 0 9.08479673948139 2.93891634367406 13.6465543555096
253 83 4 0 10.0447967394814 2.93891634367406 13.6465543555096
254 83 3 0 10.2847967394814 2.00891634367406 13.6465543555096
255 84 3 0 2.90908403389156 6.98626605951227 14.8129810136743
256 84 4 0 3.86908403389156 6.98626605951227 14.8129810136743
257 84 3 0 4.10908403389156 6.05626605951227 14.8129810136743
258 85 3 0 6.36019347977825 6.98706945794634 7.86231077858247
259 85 4 0 7.32019347977825 6.98706945794634 7.86231077858247
260 85 3 0 7.56019347977825 6.05706945794635 7.86231077858247
261 86 3 0 0.549606178393587 4.18692110380158 3.5892637562938
262 86 4 0 1.50960617839359 4.18692110380158 3.5892637562938
263 86 3 0 1.74960617839359 3.25692110380158 3.5892637562938
264 87 3 0 9.06086038143374 14.1408526494075 1.3888647663407
265 87 4 0 10.0208603814337 14.1408526494075 1.3888647663407
266 87 3 0 10.2608603814337 13.2108526494075 1.3888647663407
267 88 3 0 3.76876117123291 9.63816652813926 3.03318954538554
268 88 4 0 4.72876117123291 9.63816652813926 3.03318954538554
269 88 3 0 4.96876117123291 8.70816652813926 3.03318954538554
270 89 3 0 -0.0546684880089015 8.7539692646265 13.0470512027387
271 89 4 0 0.905331511991099 8.7539692646265 13.0470512027387
272 89 3 0 1.1453315119911 7.8239692646265 13.0470512027387
273 90 3 0 10.9239144022297 0.508064686264843 8.92918730503879
274 90 4 0 11.8839144022297 0.508064686264843 8.92918730503879
275 90 3 0 12.1239144022297 -0.421935313735157 8.92918730503879
276 91 3 0 13.4544860680774 8.7026871989388 12.1167086181231
277 91 4 0 14.4144860680774 8.7026871989388 12.1167086181231
278 91 3 0 14.6544860680774 7.7726871989388 12.1167086181231
279 92 3 0 8.63940522118471 3.12526076141745 8.82298530545086
280 92 4 0 9.59940522118472 3.12526076141745 8.82298530545086
281 92 3 0 9.83940522118472 2.19526076141745 8.82298530545086
282 93 3 0 10.1840409594309 12.5809502419457 3.77944745938294
283 93 4 0 11.1440409594309 12.5809502419457 3.77944745938294
284 93 3 0 11.3840409594309 11.6509502419457 3.77944745938294
285 94 3 0 10.3517889165971 8.97050572367385 9.80578836752102
286 94 4 0 11.3117889165971 8.97050572367385 9.80578836752102
287 94 3 0 11.5517889165971 8.04050572367385 9.80578836752102
288 95 3 0 4.13864272573963 12.9102845529001 1.43908360507339
289 95 4 0 5.09864272573963 12.9102845529001 1.43908360507339
290 95 3 0 5.33864272573963 11.9802845529001 1.43908360507339
291 96 3 0 7.28756397773512 3.87480635120533 5.83298612153158
292 96 4 0 8.24756397773512 3.87480635120533 5.83298612153158
293 96 3 0 8.48756397773512 2.94480635120533 5.83298612153158
294 97 3 0 12.5652984534111 8.9130701152049 6.67530656559393
295 97 4 0 13.5252984534111 8.9130701152049 6.67530656559393
296 97 3 0 13.7652984534111 7.9830701152049 6.67530656559393
297 98 3 0 4.12229563968256 7.57056311628781 12.1685567486566
298 98 4 0 5.08229563968256 7.57056311628781 12.1685567486566
299 98 3 0 5.32229563968256 6.64056311628781 12.1685567486566
300 99 3 0 3.35657498144545 8.4760247896798 11.7069270182401
301 99 4 0 4.31657498144545 8.4760247896798 11.7069270182401
302 99 3 0 4.55657498144545 7.5460247896798 11.7069270182401
303 100 3 0 9.93945657435805 12.6180918448977 8.22394518647343
304 100 4 0 10.899456574358 12.6180918448977 8.22394518647343
305 100 3 0 11.139456574358 11.6880918448977 8.22394518647343
306 101 3 0 0.393372221589088 13.34480546223 14.3569380382542
307 101 4 0 1.35337222158909 13.34480546223 14.3569380382542
308 101 3 0 1.59337222158909 12.41480546223 14.3569380382542
309 102 3 0 5.97224766665138 9.67008348828182 8.66566915763542
310 102 4 0 6.93224766665138 9.67008348828182 8.66566915763542
311 102 3 0 7.17224766665138 8.74008348828182 8.66566915763542
312 103 3 0 1.83505683948286 5.23518842220306 12.4793703120667
313 103 4 0 2.79505683948286 5.23518842220306 12.4793703120667
314 103 3 0 3.03505683948286 4.30518842220306 12.4793703120667
315 104 3 0 0.630051584886387 1.13951743621379 12.048111014301
316 104 4 0 1.59005158488639 1.13951743621379 12.048111014301
317 104 3 0 1.83005158488639 0.209517436213791 12.048111014301
318 105 3 0 11.0202093869168 9.9372740024142 8.18941512960009
319 105 4 0 11.9802093869168 9.9372740024142 8.18941512960009
320 105 3 0 12.2202093869168 9.0072740024142 8.18941512960009
321 106 3 0 6.65218645750545 5.01675146090798 10.7582805189304
322 106 4 0 7.61218645750545 5.01675146090798 10.7582805189304
323 106 3 0 7.85218645750545 4.08675146090798 10.7582805189304
324 107 3 0 12.3471337328386 8.81227017537691 11.0578912706114
325 107 4 0 13.3071337328386 8.81227017537691 11.0578912706114
326 107 3 0 13.5471337328386 7.88227017537691 11.0578912706114
327 108 3 0 4.46370778067037 13.7837780562136 12.1785723371431
328 108 4 0 5.42370778067037 13.7837780562136 12.1785723371431
329 108 3 0 5.66370778067038 12.8537780562136 12.1785723371431
330 109 3 0 1.71986008688807 2.89540783659555 9.46600552182645
331 109 4 0 2.67986008688808 2.89540783659555 9.46600552182645
332 109 3 0 2.91986008688808 1.96540783659555 9.46600552182645
333 110 3 0 12.6081960419845 8.43740390305407 10.1214423857164
334 110 4 0 13.5681960419845 8.43740390305407 10.1214423857164
335 110 3 0 13.8081960419845 7.50740390305407 10.1214423857164
336 111 3 0 0.947028557276353 4.43140677799471 0.259866595733911
337 111 4 0 1.90702855727635 4.43140677799471 0.259866595733911
338 111 3 0 2.14702855727635 3.50140677799471 0.259866595733911
339 112 3 0 7.45470875917934 8.03906629019417 4.89958545193076
340 112 4 0 8.41470875917934 8.03906629019417 4.89958545193076
341 112 3 0 8.65470875917934 7.10906629019417 4.89958545193076
342 113 3 0 8.59141517241485 1.88508972450159 5.78218292444944
343 113 4 0 9.55141517241485 1.88508972450159 5.78218292444944
344 113 3 0 9.79141517241485 0.955089724501595 5.78218292444944
345 114 3 0 1.75216039337218 12.1022345292754 12.7084356488194
346 114 4 0 2.71216039337218 12.1022345292754 12.7084356488194
347 114 3 0 2.95216039337218 11.1722345292754 12.7084356488194
348 115 3 0 13.7403435974568 10.4335301117413 7.32654417981394
349 115 4 0 14.7003435974568 10.4335301117413 7.32654417981394
350 115 3 0 14.9403435974568 9.50353011174128 7.32654417981394
351 116 3 0 13.6651166975219 11.0318782138079 10.263095672708
352 116 4 0 14.6251166975219 11.0318782138079 10.263095672708
353 116 3 0 14.8651166975219 10.1018782138079 10.263095672708
354 117 3 0 3.10822705898434 5.89444791589864 14.5454106980469
355 117 4 0 4.06822705898434 5.89444791589864 14.5454106980469
356 117 3 0 4.30822705898434 4.96444791589864 14.5454106980469
357 118 3 0 3.28555457454175 9.17542609077878 1.90140234539285
358 118 4 0 4.24555457454175 9.17542609077878 1.90140234539285
359 118 3 0 4.48555457454175 8.24542609077878 1.90140234539285
360 119 3 0 7.16304106565192 1.77866417955607 11.1215818149503
361 119 4 0 8.12304106565192 1.77866417955607 11.1215818149503
362 119 3 0 8.36304106565192 0.848664179556072 11.1215818149503
363 120 3 0 7.94317969746888 14.1910581085272 6.55659704119898
364 120 4 0 8.90317969746888 14.1910581085272 6.55659704119898
365 120 3 0 9.14317969746888 13.2610581085272 6.55659704119898
366 121 3 0 12.4984569141828 15.0516048648302 6.39508316642605
367 121 4 0 13.4584569141828 15.0516048648302 6.39508316642605
368 121 3 0 13.6984569141828 14.1216048648302 6.39508316642605
369 122 3 0 8.15401241459884 9.42807339522056 9.55575780943036
370 122 4 0 9.11401241459884 9.42807339522056 9.55575780943036
371 122 3 0 9.35401241459884 8.49807339522056 9.55575780943036
372 123 3 0 12.7871842570323 10.2547010445874 0.584259645547718
373 123 4 0 13.7471842570323 10.2547010445874 0.584259645547718
374 123 3 0 13.9871842570324 9.32470104458742 0.584259645547718
375 124 3 0 14.0217077003047 5.46306892455555 12.8287427884061
376 124 4 0 14.9817077003047 5.46306892455555 12.8287427884061
377 124 3 0 15.2217077003047 4.53306892455555 12.8287427884061
378 125 3 0 9.22337137090042 12.5802820086852 4.69166850904003
379 125 4 0 10.1833713709004 12.5802820086852 4.69166850904003
380 125 3 0 10.4233713709004 11.6502820086852 4.69166850904003
381 126 3 0 0.14726096807979 7.09513815626502 11.5709332411643
382 126 4 0 1.10726096807979 7.09513815626502 11.5709332411643
383 126 3 0 1.34726096807979 6.16513815626502 11.5709332411643
384 127 3 0 10.4710946771968 9.59232813836075 5.38440232747234
385 127 4 0 11.4310946771968 9.59232813836075 5.38440232747234
386 127 3 0 11.6710946771968 8.66232813836075 5.38440232747234
387 128 3 0 8.65236082507297 6.3566636705678 8.55747095891275
388 128 4 0 9.61236082507297 6.3566636705678 8.55747095891275
389 128 3 0 9.85236082507297 5.4266636705678 8.55747095891275
390 129 3 0 0.0915389419253916 5.7983914871607 12.6391203375533
391 129 4 0 1.05153894192539 5.7983914871607 12.6391203375533
392 129 3 0 1.29153894192539 4.8683914871607 12.6391203375533
393 130 3 0 1.87139892063104 12.2879432355426 1.72162275644951
394 130 4 0 2.83139892063104 12.2879432355426 1.72162275644951
395 130 3 0 3.07139892063104 11.3579432355426 1.72162275644951
396 131 3 0 12.9715604502428 9.67521347495727 3.67128545651212
397 131 4 0 13.9315604502428 9.67521347495727 3.67128545651212
398 131 3 0 14.1715604502428 8.74521347495727 3.67128545651212
399 132 3 0 4.99195324533619 3.38187847909518 12.8972020978108
400 132 4 0 5.95195324533619 3.38187847909518 12.8972020978108
401 132 3 0 6.19195324533619 2.45187847909518 12.8972020978108
402 133 3 0 3.19173314885236 14.1975759148505 8.76730903051794
403 133 4 0 4.15173314885236 14.1975759148505 8.76730903051794
404 133 3 0 4.39173314885236 13.2675759148505 8.76730903051794
405 134 3 0 0.691791335558519 1.7592903847713 6.55937010305934
406 134 4 0 1.65179133555852 1.7592903847713 6.55937010305934
407 134 3 0 1.89179133555852 0.829290384771302 6.55937010305934
408 135 3 0 11.8436337522883 5.19522004336119 8.48018499207683
409 135 4 0 12.8036337522883 5.19522004336119 8.48018499207683
410 135 3 0 13.0436337522883 4.26522004336119 8.48018499207683
411 136 3 0 0.614072827594355 7.4047094168514 5.61153715476394
412 136 4 0 1.57407282759435 7.4047094168514 5.61153715476394
413 136 3 0 1.81407282759435 6.4747094168514 5.61153715476394
414 137 3 0 11.026010708157 3.09766406117938 0.278267586836591
415 137 4 0 11.986010708157 3.09766406117938 0.278267586836591
416 137 3 0 12.226010708157 2.16766406117938 0.278267586836591
417 138 3 0 14.0526010344923 9.79218881851062 6.57232212019153
418 138 4 0 15.0126010344923 9.79218881851062 6.57232212019153
419 138 3 0 15.2526010344923 8.86218881851062 6.57232212019153
420 139 3 0 0.882354365168139 12.0464833445754 1.61136219394393
421 139 4 0 1.84235436516814 12.0464833445754 1.61136219394393
422 139 3 0 2.08235436516814 11.1164833445754 1.61136219394393
423 140 3 0 11.8730626003537 8.92336686066352 7.12343204417266
424 140 4 0 12.8330626003537 8.92336686066352 7.12343204417266
425 140 3 0 13.0730626003537 7.99336686066352 7.12343204417266
426 141 3 0 2.70507780413143 13.1342739138659 0.648240804439411
427 141 4 0 3.66507780413143 13.1342739138659 0.648240804439411
428 141 3 0 3.90507780413143 12.2042739138659 0.648240804439411
429 142 3 0 12.6598396715429 15.2816703931335 4.96397960116155
430 142 4 0 13.6198396715429 15.2816703931335 4.96397960116155
431 142 3 0 13.8598396715429 14.3516703931335 4.96397960116155
432 143 3 0 9.29470214221626 9.51055357506499 3.62223836244084
433 143 4 0 10.2547021422163 9.51055357506499 3.62223836244084
434 143 3 0 10.4947021422163 8.58055357506499 3.62223836244084
435 144 3 0 0.964656681027263 8.73160638188943 3.89309361227788
436 144 4 0 1.92465668102726 8.73160638188943 3.89309361227788
437 144 3 0 2.16465668102726 7.80160638188943 3.89309361227788
438 145 3 0 3.58539821390994 10.180065288851 10.2612317609601
439 145 4 0 4.54539821390994 10.180065288851 10.2612317609601
440 145 3 0 4.78539821390994 9.25006528885104 10.2612317609601
441 146 3 0 0.662932194974273 3.89669531415217 2.26419047336094
442 146 4 0 1.62293219497427 3.89669531415217 2.26419047336094
443 146 3 0 1.86293219497427 2.96669531415217 2.26419047336094
444 147 3 0 8.88332237533294 11.3607848241832 9.94388318737037
445 147 4 0 9.84332237533294 11.3607848241832 9.94388318737037
446 147 3 0 10.0833223753329 10.4307848241832 9.94388318737037
447 148 3 0 10.4415688959137 5.63914993236773 13.9859718864318
448 148 4 0 11.4015688959137 5.63914993236773 13.9859718864318
449 148 3 0 11.6415688959137 4.70914993236773 13.9859718864318
450 149 3 0 3.07947731969878 4.36239312443882 2.78047707513906
451 149 4 0 4.03947731969878 4.36239312443882 2.78047707513906
452 149 3 0 4.27947731969878 3.43239312443882 2.78047707513906
453 150 3 0 4.4325462360587 9.34898127493449 9.09409519750625
454 150 4 0 5.3925462360587 9.34898127493449 9.09409519750625
455 150 3 0 5.6325462360587 8.41898127493449 9.09409519750625
456 151 3 0 0.861295577343553 13.6205169492774 11.0425233514979
457 151 4 0 1.82129557734355 13.6205169492774 11.0425233514979
458 151 3 0 2.06129557734355 12.6905169492774 11.0425233514979
459 152 3 0 0.0334188951831311 12.5877325182687 0.647054045693949
460 152 4 0 0.993418895183131 12.5877325182687 0.647054045693949
461 152 3 0 1.23341889518313 11.6577325182687 0.647054045693949
462 153 3 0 10.0610561510269 1.56565819907933 9.13939029327594
463 153 4 0 11.0210561510269 1.56565819907933 9.13939029327594
464 153 3 0 11.2610561510269 0.635658199079335 9.13939029327594
465 154 3 0 10.9186235284153 11.0083329309151 4.52265073894523
466 154 4 0 11.8786235284153 11.0083329309151 4.52265073894523
467 154 3 0 12.1186235284153 10.0783329309151 4.52265073894523
468 155 3 0 3.14380144860595 9.87138845416717 14.9233631487004
469 155 4 0 4.10380144860595 9.87138845416717 14.9233631487004
470 155 3 0 4.34380144860596 8.94138845416717 14.9233631487004
471 156 3 0 12.0929336284474 2.32996537856758 10.2150268096011
472 156 4 0 13.0529336284474 2.32996537856758 10.2150268096011
473 156 3 0 13.2929336284474 1.39996537856758 10.2150268096011
474 157 3 0 11.4389433937334 7.86594644113444 14.0448359213769
475 157 4 0 12.3989433937334 7.86594644113444 14.0448359213769
476 157 3 0 12.6389433937334 6.93594644113444 14.0448359213769