LAMMPS (29 Sep 2021 - Update 1)
Reading data file ...
  triclinic box = (0.0000000 0.0000000 0.0000000) to (15.000000 15.000000 15.000000) with tilt (0.0000000 0.0000000 0.0000000)
  2 by 4 by 4 MPI processor grid
  reading atoms ...
  1508 atoms
  scanning bonds ...
  4 = max bonds/atom
  scanning angles ...
  6 = max angles/atom
  scanning dihedrals ...
  9 = max dihedrals/atom
  reading bonds ...
  1007 bonds
  reading angles ...
  512 angles
  reading dihedrals ...
  9 dihedrals
Finding 1-2 1-3 1-4 neighbors ...
  special bond factors lj:    0        0        1       
  special bond factors coul:  0        0        1       
     4 = max # of 1-2 neighbors
     3 = max # of 1-3 neighbors
     7 = max # of special neighbors
  special bonds CPU = 0.002 seconds
  read_data CPU = 0.017 seconds
WARNING: Using 'neigh_modify every 1 delay 0 check yes' setting during minimization (../min.cpp:188)
Neighbor list info ...
  update every 1 steps, delay 0 steps, check yes
  max neighbors/atom: 10000, page size: 100000
  master list distance cutoff = 13
  ghost atom cutoff = 13
  binsize = 6.5, bins = 3 3 3
  3 neighbor lists, perpetual/occasional/extra = 3 0 0
  (1) pair hbond/dreiding/lj, perpetual, skip from (3)
      attributes: full, newton on
      pair build: skip
      stencil: none
      bin: none
  (2) pair lj/cut, perpetual, half/full from (3)
      attributes: half, newton on
      pair build: halffull/newton
      stencil: none
      bin: none
  (3) neighbor class addition, perpetual
      attributes: full, newton on
      pair build: full/bin
      stencil: full/bin/3d
      bin: standard
Setting up cg style minimization ...
  Unit style    : real
  Current step  : 0
WARNING: Energy due to 1 extra global DOFs will be included in minimizer energies
Per MPI rank memory allocation (min/avg/max) = 13.96 | 14.30 | 14.56 Mbytes
Step Temp E_pair E_mol TotEng Press Volume 
       0            0 1.9945286e+23    195.02038 1.9945286e+23 1.620879e+25         3375 
    5066            0   -955.09072    18.843352   -936.24737    101.03321    38974.157 
Loop time of 4.60589 on 32 procs for 5066 steps with 1508 atoms

100.0% CPU use with 32 MPI tasks x no OpenMP threads

Minimization stats:
  Stopping criterion = energy tolerance
  Energy initial, next-to-last, final = 
    1.99452859628449e+23  -935.637281280392  -935.728189783237
  Force two-norm initial, final = 1.2944596e+26 105.29832
  Force max component initial, final = 7.3284882e+25 75.465840
  Final line search alpha, max atom move = 1.5062577e-05 0.0011367101
  Iterations, force evaluations = 5066 5099

MPI task timing breakdown:
Section |  min time  |  avg time  |  max time  |%varavg| %total
---------------------------------------------------------------
Pair    | 1.1084     | 2.5644     | 3.887      |  42.1 | 55.68
Bond    | 0.0058125  | 0.010459   | 0.015735   |   2.3 |  0.23
Neigh   | 0.094898   | 0.09525    | 0.095612   |   0.1 |  2.07
Comm    | 0.28054    | 1.6027     | 3.0602     |  53.2 | 34.80
Output  | 0          | 0          | 0          |   0.0 |  0.00
Modify  | 0          | 0          | 0          |   0.0 |  0.00
Other   |            | 0.3331     |            |       |  7.23

Nlocal:        47.1250 ave          68 max          27 min
Histogram: 2 2 5 2 4 7 3 2 3 2
Nghost:        1925.34 ave        1952 max        1900 min
Histogram: 3 3 3 4 3 4 2 5 3 2
Neighs:        4821.34 ave        7376 max        2726 min
Histogram: 3 5 3 3 4 3 6 1 2 2

Total # of neighbors = 154283
Ave neighs/atom = 102.30968
Ave special neighs/atom = 2.0145889
Neighbor list builds = 94
Dangerous builds = 0
1500 atoms in group WAT
8 atoms in group MOL
Neighbor list info ...
  update every 2 steps, delay 10 steps, check yes
  max neighbors/atom: 10000, page size: 100000
  master list distance cutoff = 13
  ghost atom cutoff = 13
  binsize = 6.5, bins = 6 6 6
  4 neighbor lists, perpetual/occasional/extra = 3 1 0
  (1) pair hbond/dreiding/lj, perpetual, skip from (4)
      attributes: full, newton on
      pair build: skip
      stencil: none
      bin: none
  (2) pair lj/cut, perpetual, half/full from (4)
      attributes: half, newton on
      pair build: halffull/newton
      stencil: none
      bin: none
  (3) compute group/group, occasional, copy from (2)
      attributes: half, newton on
      pair build: copy
      stencil: none
      bin: none
  (4) neighbor class addition, perpetual
      attributes: full, newton on
      pair build: full/bin
      stencil: full/bin/3d
      bin: standard
Setting up Verlet run ...
  Unit style    : real
  Current step  : 5066
  Time step     : 1
Per MPI rank memory allocation (min/avg/max) = 12.80 | 12.84 | 13.02 Mbytes
Step Temp E_pair E_mol TotEng Press Volume 
    5066          300   -955.09072    18.843352    411.37686    1681.6439    38974.157 
    5100    285.84528   -969.28102    166.26294    481.02201    2213.5908    38974.157 
    5200    302.76181   -1027.5091    153.29094    485.81228    1054.4191    38974.157 
    5300    297.85346   -1033.4909    194.56606    499.05696    541.83404    38974.157 
    5400    289.89442   -1057.5237    189.47682    434.18224    724.45466    38974.157 
    5500    298.41359   -1071.4831     174.1428    443.15768    666.28504    38974.157 
    5600    298.86995   -1101.3198    182.04467    423.27278    156.70962    38974.157 
    5700    308.17853   -1068.0355    181.74326    498.07054    332.95637    38974.157 
    5800    301.14304   -1078.7892    186.76615    460.73587   -58.168528    38974.157 
    5900    309.54337   -1068.2773    195.94958    518.16613    118.32955    38974.157 
    6000    294.19767   -1025.7944    180.59636    476.36169    336.07066    38974.157 
    6100    307.67494   -1032.2602    203.04565    552.88617    3.4769406    38974.157 
    6200    291.67791   -1029.2296    196.88276    477.89386    341.86074    38974.157 
    6300    296.02958   -1042.1457    200.30645    487.94953    207.28316    38974.157 
    6400    304.43972   -1048.6368      191.642    510.57301    104.24217    38974.157 
    6500    306.61644   -1059.3648    208.44218    526.42316   -38.438689    38974.157 
    6600    300.60508   -1104.2795    196.06591    442.12865     124.2511    38974.157 
    6700    294.77219   -1026.9719    204.05354    501.22212    39.878828    38974.157 
    6800    305.14867   -1066.6514    197.42814     501.5292    330.38914    38974.157 
    6900    306.38312   -1064.2819    211.68651    523.70228    430.04464    38974.157 
    7000     306.8982   -1056.0312    200.84694    523.42719    540.78956    38974.157 
    7100    307.05023   -1028.3115    217.20784    568.19074    82.654416    38974.157 
    7200    294.04923   -1023.7594    211.87277    509.00628    590.39561    38974.157 
    7300    296.99565   -1066.5323    214.44719    482.04332    390.30461    38974.157 
    7400    300.41937   -1060.7239    223.48044     512.2646    542.24374    38974.157 
    7500    298.76874   -1048.8452    212.47193       505.72     413.5234    38974.157 
    7600    314.92398   -1055.3963    213.81372    573.08136    774.79729    38974.157 
    7700    299.69019   -1025.2878    211.23604     532.1808    718.78538    38974.157 
    7800    288.79566   -1090.5744    229.13951    435.85851    911.48856    38974.157 
    7900    289.41976   -1076.8101    227.38331    450.67012    522.37099    38974.157 
    8000    310.14827   -1080.4596    221.36994    534.12148    191.50362    38974.157 
    8100    308.34755   -1079.1405    233.39633    539.37792    52.718148    38974.157 
    8200    302.70414   -1106.9757    209.51581    462.31155    333.96353    38974.157 
    8300     301.9933   -1087.1002    216.39345    485.87154    451.60114    38974.157 
    8400    309.84648   -1088.1438    220.71171     524.4233    201.05894    38974.157 
    8500    305.68907   -1031.4208    232.08327    573.84251    654.77041    38974.157 
    8600     328.6697   -1097.9702    219.07108    597.51171     341.1688    38974.157 
    8700    300.86552   -1059.9466    220.10879    511.67444    300.29122    38974.157 
    8800    300.48221   -1037.9707    229.63807    541.45768     512.9078    38974.157 
    8900    295.26723   -1056.2069    229.38139    499.53877    384.73152    38974.157 
    9000    294.01638   -1074.5797     243.1511    489.31674    365.85226    38974.157 
    9100     294.6108   -1074.8902    226.95818    475.48355    389.04416    38974.157 
    9200    296.62585   -1109.4545    234.53752    457.55027    324.39251    38974.157 
    9300    294.85268   -1076.2388    255.56745     503.8307    496.67697    38974.157 
    9400    307.74083    -1091.124    231.44185    522.71456    874.73383    38974.157 
    9500    290.55481    -1104.709     241.2261    441.71274    174.61966    38974.157 
    9600    307.28709   -1122.0888     238.2523    496.52189    673.90901    38974.157 
    9700    299.49086   -1097.3789    224.20579    472.16406    637.85902    38974.157 
    9800    284.55637   -1101.6518    238.49954    415.09794    124.73063    38974.157 
    9900    302.85216   -1093.2278    236.49743    503.70596   -58.355228    38974.157 
   10000    301.43552   -1100.0299     239.0482      493.091    371.79597    38974.157 
   10100    306.52978   -1124.3286    249.57501    502.20296    190.39842    38974.157 
   10200    299.89406   -1131.8086    256.06321    471.40297     282.5093    38974.157 
   10300    312.71768   -1139.4178    235.20026    500.53556     731.5261    38974.157 
   10400    310.11125    -1126.049    244.95333    511.94909     630.1724    38974.157 
   10500    295.50424   -1116.2564    249.77124    460.94375    480.34051    38974.157 
   10600    307.80615   -1111.1025    240.54908    512.13665    382.29231    38974.157 
   10700    295.45305   -1174.9909    246.28038    398.48839    342.22556    38974.157 
   10800    295.57408   -1161.7021    251.53558    417.57612     318.3042    38974.157 
   10900    294.57945   -1156.6819    254.58823    421.18101    456.83583    38974.157 
   11000    300.23528   -1129.9075    251.24226    470.01591    406.87108    38974.157 
   11100    294.68187   -1170.4132    246.88733    400.20883   -186.46385    38974.157 
   11200    301.58203   -1130.8992    266.47421    490.30588    330.02488    38974.157 
   11300    301.40416   -1160.8793    255.93123    448.98371    -11.26023    38974.157 
   11400    290.96529   -1160.3023    260.78654    407.52385   -29.799592    38974.157 
   11500    296.20497   -1165.9233    257.17681    421.83016    25.092928    38974.157 
   11600    305.85839   -1178.6834    247.20554    442.46266    317.01834    38974.157 
   11700    293.81448   -1142.8669    252.54189    429.51338     513.6608    38974.157 
   11800    302.64694    -1155.034    256.62901    461.10946    596.19388    38974.157 
   11900    302.72766   -1116.4669     258.0435    501.45369    609.67171    38974.157 
   12000    303.42024   -1102.7004    265.27153    525.55932    530.17949    38974.157 
   12100     301.1245   -1094.1735    270.23768    528.73977   -46.882476    38974.157 
   12200    303.45611   -1127.5679    275.84959    511.43111    331.88061    38974.157 
   12300    308.57232   -1108.9254    281.11465    558.32104    487.97784    38974.157 
   12400    308.66251   -1082.0181    283.89386    588.41271    870.32766    38974.157 
   12500    300.99696    -1098.454    275.11738    528.76605    735.29674    38974.157 
   12600    298.87639   -1122.4715    268.56745    488.67288   -104.96636    38974.157 
   12700    300.43463   -1174.9074    241.90663    416.57583    297.56027    38974.157 
   12800    305.62179   -1159.1522     272.8766    486.60216     745.6558    38974.157 
   12900    290.01786   -1164.9694    259.46522    397.27949    320.67499    38974.157 
   13000    302.71326   -1120.5489    285.95316    525.21671   -173.99578    38974.157 
   13100    300.73711   -1155.2292    270.89662    466.60277   -20.158048    38974.157 
   13200    309.10146   -1143.9756    279.31344    523.84652    152.02201    38974.157 
   13300     293.4501   -1151.7155    271.84846    438.33451   -433.78113    38974.157 
   13400    295.90145   -1178.3738    279.63918    430.47857    9.4947438    38974.157 
   13500    312.13843   -1156.7099    271.86306    517.30418    451.75696    38974.157 
   13600    298.85532   -1208.8546    264.02783    397.65546    409.96896    38974.157 
   13700    296.03155   -1157.9835    275.21231    447.02649    671.75717    38974.157 
   13800    297.96609   -1195.7807     249.0558    391.76289    800.76301    38974.157 
   13900    294.44274   -1207.2075     270.1651    385.61815    589.45357    38974.157 
   14000     303.7374    -1207.539    269.30352    426.17746    678.97837    38974.157 
   14100    299.84785   -1170.9166    286.28322    462.30742    450.15493    38974.157 
   14200    300.51048    -1165.168    293.99875    478.74812    439.69526    38974.157 
   14300    304.86505   -1166.7263    268.55163    471.30376     437.5732    38974.157 
   14400    300.48139   -1176.3009    278.24418    451.72995    678.87028    38974.157 
   14500      296.845   -1213.5184    263.82557    383.75884    480.48898    38974.157 
   14600    308.40472   -1182.5783    282.82623    485.62684    452.32382    38974.157 
   14700    296.74091   -1150.8959    288.78876    470.87698    450.78994    38974.157 
   14800    298.15691   -1207.4433    270.14382    402.04537   -53.864715    38974.157 
   14900    299.91658   -1157.3882    279.80726    469.66852     261.0212    38974.157 
   15000    299.40488   -1181.0407    279.41535    443.32561     114.7882    38974.157 
   15100    305.21155   -1139.7038    283.42369    514.75485    497.64814    38974.157 
   15200    301.59524   -1165.5706    281.60397    470.82354    154.81595    38974.157 
   15300    308.27462   -1205.5685    269.91119    449.13718    17.402199    38974.157 
   15400    306.19452   -1174.4884    298.78943    499.75153   -47.311444    38974.157 
   15500    310.19785   -1221.4026    291.07311    463.10428    272.64288    38974.157 
   15600    294.23009   -1186.2983    276.05959     411.4666    187.16954    38974.157 
   15700    298.82548    -1200.655    305.43128    447.12447    116.52733    38974.157 
   15800    302.94019   -1189.5281    283.67555    454.97923    954.79179    38974.157 
   15900    294.29164   -1227.5934    274.83051    369.21894    476.28293    38974.157 
   16000    306.58349   -1202.6962     278.6954    453.19701     485.6607    38974.157 
   16100    293.36464   -1194.3045    297.24767    420.76075    652.76748    38974.157 
   16200    291.46949   -1212.4804    265.70852    362.53261    289.34391    38974.157 
   16300    296.84922   -1193.4346    292.29064    432.32669    206.12978    38974.157 
   16400    286.32479   -1175.9426    310.81229    421.06374    389.46068    38974.157 
   16500    301.71864   -1182.4792    272.21302    445.07833   -207.09818    38974.157 
   16600    299.89918   -1178.5889    292.01508    460.59749   -249.00278    38974.157 
   16700    313.57126   -1187.0661    285.82303    507.34437   -213.22828    38974.157 
   16800    292.09982   -1147.9471    294.51701    458.70585    -193.5699    38974.157 
   16900     299.2558   -1161.8266    301.67923    484.13382   -98.049688    38974.157 
   17000     295.6464   -1127.0674    316.34567    517.34575   -76.703337    38974.157 
   17100    294.82137   -1164.5564     297.0508    456.85579   -299.45005    38974.157 
   17200    301.47698   -1135.5339    322.04264     540.7677    132.52371    38974.157 
   17300    300.45003   -1144.7738    302.39419    507.26624   -63.342342    38974.157 
   17400    305.88193   -1129.8161    302.22743    546.45762    283.38614    38974.157 
   17500    295.87807   -1180.5251    306.00069    454.58374    116.83749    38974.157 
   17600     298.1831   -1183.2687    304.88704    461.08091    536.19911    38974.157 
   17700    296.02027   -1197.0355    302.42433    435.13581    648.09305    38974.157 
   17800    297.42255   -1224.8394    303.71452    414.92125    185.50951    38974.157 
   17900    297.26749   -1213.7552    288.46914    410.06355    301.84568    38974.157 
   18000     298.5899   -1198.9211    308.88221    451.25102   -63.745086    38974.157 
   18100    300.42282    -1139.939    309.28642      518.871    134.16161    38974.157 
   18200    305.19822   -1152.5354    285.63906    504.07875    174.98288    38974.157 
   18300     309.2617   -1163.7481    290.46173    515.94217     7.757023    38974.157 
   18400    308.42701   -1194.1068    296.70807    488.08032    195.91472    38974.157 
   18500    298.43086   -1184.4085    296.12622    452.29326   -456.87662    38974.157 
   18600    312.50901   -1197.1255    306.31738    513.00754   -63.767981    38974.157 
   18700    297.99155   -1189.7059    297.99954    446.89575    196.77412    38974.157 
   18800    307.42431   -1176.4425    301.96524    506.49756    117.33626    38974.157 
   18900    306.19358   -1216.1966    298.32862    457.57828    560.47516    38974.157 
   19000    297.91841   -1235.0052    293.60352    396.87191     729.5649    38974.157 
   19100    297.41202   -1201.2418    311.61745    446.37449      635.846    38974.157 
   19200    291.79382   -1209.7741    298.19022    399.17749    704.62986    38974.157 
   19300    289.84784   -1193.5503      302.502    410.97158    955.99963    38974.157 
   19400    304.29279   -1183.3952     310.4441    493.95669    867.38271    38974.157 
   19500    310.62439   -1147.1295    303.70005    551.92044      847.331    38974.157 
   19600    298.18544   -1173.9823    276.47591    441.96669    364.63033    38974.157 
   19700    309.92067   -1217.9322     299.9428    474.19926    549.78249    38974.157 
   19800    301.10093   -1220.9858    298.35229    429.93613     477.4255    38974.157 
   19900    292.20302   -1244.1527    313.56957    382.01641    192.23003    38974.157 
   20000    292.10237   -1258.3937    291.10892    344.86264    308.61524    38974.157 
   20100    297.11866   -1205.0533    310.97401    440.60175    209.99037    38974.157 
   20200    303.89304   -1212.9321    317.56532    469.74529   -107.70017    38974.157 
   20300    289.59059   -1242.3837    298.67855    357.15917   -263.17688    38974.157 
   20400    314.10722    -1226.548    314.74099    499.18798    327.58557    38974.157 
   20500    295.34372   -1198.9028    319.45388    447.25891    -64.80543    38974.157 
   20600    301.78828   -1218.0657    307.02385    444.61544    425.94186    38974.157 
   20700    297.14304   -1205.0939    318.57074    448.26738    515.79468    38974.157 
   20800    296.97278   -1193.3926    314.09456     454.7277    435.70339    38974.157 
   20900    307.54099   -1198.4121    306.62363    489.71051    430.04208    38974.157 
   21000    302.57135   -1259.5805    308.71546    408.30985    100.26152    38974.157 
   21100    316.13751   -1212.0365    329.30658    537.38529    440.50491    38974.157 
   21200     301.3162   -1215.9471    309.14983    446.73942     475.3149    38974.157 
   21300    303.89222   -1218.0317    325.77194    472.84866    544.16985    38974.157 
   21400     297.7875   -1212.3298    295.47474    420.83043     464.0369    38974.157 
   21500    295.53243   -1193.4031    322.40711    456.55958    787.00332    38974.157 
   21600    307.30993    -1200.452    348.52703    528.53605    58.999543    38974.157 
   21700    295.53434   -1185.3133    309.55895     451.8097    461.27366    38974.157 
   21800    299.43264   -1155.8898    312.65937     501.8452    730.40274    38974.157 
   21900    292.88402   -1171.1774    329.66106    474.14235    262.70609    38974.157 
   22000     294.2796   -1179.7881    309.66045    451.80007    447.27827    38974.157 
   22100    312.01908   -1207.8571     312.9976     506.7554    68.724746    38974.157 
   22200    298.00157   -1218.5378    311.56241     431.6717    129.51913    38974.157 
   22300    306.97474   -1179.3591    328.35562    527.95179    523.15322    38974.157 
   22400    295.48712   -1201.5086    309.48374    435.32715    88.177181    38974.157 
   22500    287.11837    -1202.303     322.6775     410.1334    154.99896    38974.157 
   22600    301.08723   -1252.6535    308.82248    408.67713     182.1497    38974.157 
   22700    308.26102   -1264.8288    305.60149    425.50612     94.45555    38974.157 
   22800    298.76917    -1212.585    334.08075    463.59095    475.38038    38974.157 
   22900    311.04083   -1226.7131    315.85878    486.36623    410.23425    38974.157 
   23000    297.85615   -1225.5076    312.07845    424.56475    288.09897    38974.157 
   23100    289.24238   -1251.0257    312.85104    361.12543     364.7166    38974.157 
   23200    307.90233    -1237.259    316.62684    462.48991    420.07698    38974.157 
   23300    291.86991   -1238.4052    339.65687    412.35485   -174.23926    38974.157 
   23400    303.17929   -1204.9189    335.01597    492.00294    247.37568    38974.157 
   23500    294.02549   -1214.8515    307.19891    413.13365    54.670643    38974.157 
   23600    297.14245   -1255.0826    308.83213    388.53737   -79.043482    38974.157 
   23700    301.14034   -1262.9317    317.85814    407.67316   -163.95361    38974.157 
   23800    308.68558   -1227.5525    328.92353    488.01156    49.780556    38974.157 
   23900    300.93779   -1243.9986    312.12845    419.96668    178.09641    38974.157 
   24000    301.40149   -1264.7135    310.37155     399.5779   -12.460514    38974.157 
   24100    307.86133   -1228.8507    342.05192    496.13918    301.06201    38974.157 
   24200    297.82466   -1255.0604    313.58817    396.38022    302.90584    38974.157 
   24300    311.74753   -1260.7413    313.44271     453.0965    282.55976    38974.157 
   24400    301.54296   -1239.2355     329.3425    444.66234    86.689314    38974.157 
   24500    291.06912   -1292.9384    316.43056    330.99813    417.68288    38974.157 
   24600    291.94987   -1282.1641    333.11262    362.41092    38.967485    38974.157 
   24700    301.10988   -1300.9726    340.60529    392.24254    162.22307    38974.157 
   24800    297.64618   -1257.7392    321.00768    400.31918    -255.7597    38974.157 
   24900    290.29234   -1261.1913    324.51838    367.34372   -17.798816    38974.157 
   25000    311.92227   -1223.6974    332.53408    510.01668    267.46812    38974.157 
   25100    303.64031   -1239.5267    318.48124    442.93137    496.78746    38974.157 
   25200    304.32865    -1274.516    332.68949     425.2424    218.88614    38974.157 
   25300    294.03417   -1243.4206    338.40485    415.80953    1103.3788    38974.157 
   25400    292.40647   -1216.1641    332.05624    429.40561    393.71105    38974.157 
   25500    304.97776   -1270.2875    331.62537    431.32259    188.35117    38974.157 
   25600    300.23186   -1220.4307    341.71899    469.95407    366.10272    38974.157 
   25700    296.98371   -1216.8742    347.76423    464.96481    93.758017    38974.157 
   25800    301.54276   -1180.7517    310.94969    484.75238    342.86654    38974.157 
   25900    306.51863   -1191.2272    338.18843    523.86769    614.74427    38974.157 
   26000    296.73287   -1221.5385    348.89647      460.306    624.99362    38974.157 
   26100    302.66897   -1211.4056    354.08362    502.29147    340.93796    38974.157 
   26200    298.96466   -1210.0757     330.4557     463.3534     609.5052    38974.157 
   26300     291.1647   -1249.6761    330.09844    388.35771    272.41258    38974.157 
   26400    302.28043   -1241.4416    308.51865    424.94519    309.92823    38974.157 
   26500    295.48934   -1235.1832    333.52488    425.70366    421.14252    38974.157 
   26600    306.99823     -1201.38     322.4033     500.0841    249.75214    38974.157 
   26700    296.43533   -1220.0435    323.98076    435.54872    33.504369    38974.157 
   26800    304.89472    -1177.775    341.73456    533.57129    92.837941    38974.157 
   26900    298.87962   -1192.6124    322.50647    472.48543    97.659449    38974.157 
   27000     288.1547   -1231.0904    321.66755    384.99129    149.19933    38974.157 
   27100    294.22663   -1228.2799    322.07934    415.48923    519.02369    38974.157 
   27200    292.43489   -1194.7823    316.70381    435.56267    56.275117    38974.157 
   27300    298.18215   -1180.3893    330.67154    489.74055    29.733535    38974.157 
   27400    294.88187   -1245.5704     321.1528    400.21557    405.90824    38974.157 
   27500    306.23061   -1253.1914    331.92661    454.34781    35.169782    38974.157 
   27600    293.40404   -1232.4016    315.31396      400.907   -97.221496    38974.157 
   27700    300.30689   -1222.0954     317.0135    443.92088    464.06371    38974.157 
   27800    293.64037   -1231.2441    354.31907    442.13119    737.52369    38974.157 
   27900    310.48029   -1261.9764    327.76642    460.49258    512.82922    38974.157 
   28000    302.95875    -1208.417     360.9252    513.42336    140.82361    38974.157 
   28100    298.99025   -1263.4889    348.53551     428.1349    175.01961    38974.157 
   28200    302.23977    -1276.603    315.58419    396.66665    287.17195    38974.157 
   28300    304.13114   -1283.6142    340.53397    423.10135    271.46235    38974.157 
   28400     298.5001   -1295.5008    326.02037    371.40606    522.71769    38974.157 
   28500    297.32134   -1252.2748     317.9976    401.31426    410.82242    38974.157 
   28600    295.91206   -1257.0994    338.53959    410.70104    397.76114    38974.157 
   28700     296.9249   -1278.6224    346.02352    401.21172    54.918131    38974.157 
   28800    295.97789   -1250.5649    365.95318    444.94481    486.98113    38974.157 
   28900    304.73195   -1232.0369    342.92589    479.76947    467.12639    38974.157 
   29000    301.74184   -1230.5603    344.03334    468.92175     609.1684    38974.157 
   29100    300.71322   -1209.1097    355.51332    497.23163    294.41595    38974.157 
   29200    310.53967   -1209.7264    353.91561    539.15844    458.36245    38974.157 
   29300    300.55361   -1227.1959    355.02241     477.9376    146.30483    38974.157 
   29400    291.91191   -1259.9179    348.00252    399.37651    432.67038    38974.157 
   29500    307.61863   -1223.8444    348.55084    506.55414    819.57037    38974.157 
   29600    291.33183   -1225.8916    349.00127    431.79583    330.73077    38974.157 
   29700    294.25566   -1242.0394    356.22476    436.00551      98.3018    38974.157 
   29800    305.41932   -1232.8978    327.57263    466.64311    511.47524    38974.157 
   29900    294.55485   -1239.9752    343.23173    426.42071    87.427115    38974.157 
   30000    300.87987   -1251.5196    355.79696    455.85402     135.6084    38974.157 
   30100    306.72775   -1258.6916    344.41329    463.56752   -170.95318    38974.157 
   30200    310.72368   -1247.3396    345.76902    494.22529    97.872166    38974.157 
   30300     299.4401   -1255.9235    373.58667     462.7723    147.63126    38974.157 
   30400    293.76233   -1294.7998    333.85736    358.66168    562.40788    38974.157 
   30500    296.04416   -1309.0723    349.09026    369.87224    311.98927    38974.157 
   30600     290.1802   -1290.5475    355.22869    368.19409    261.61805    38974.157 
   30700    300.07312   -1264.4181    341.27226    424.80684    278.13001    38974.157 
   30800    311.07716   -1229.6758    346.43206    514.14003    725.49936    38974.157 
   30900    311.00811   -1264.5478    364.80627    497.33201   -175.99085    38974.157 
   31000    296.94151   -1285.1716    364.24533    412.95896    50.750801    38974.157 
   31100    299.21562   -1278.0114    345.90621    411.99558    449.51173    38974.157 
   31200    298.03679   -1252.8859    352.41837    438.33779    382.88672    38974.157 
   31300    295.84945   -1265.8217    355.85111    419.00898    426.92467    38974.157 
   31400    300.99722   -1260.2994    362.75094    454.55539   -145.00239    38974.157 
   31500    304.58829    -1288.303    335.54352     415.4757    479.33569    38974.157 
   31600    296.00878   -1219.3119     362.6513    473.03476    500.81695    38974.157 
   31700    308.38181   -1280.1347    352.68487    457.82615   -251.14832    38974.157 
   31800    307.34308   -1270.4647    348.79269    458.93789   -593.56244    38974.157 
   31900    297.99409   -1258.3525     381.2802    461.54121   -432.30667    38974.157 
   32000    296.96787   -1249.0571    347.71574    432.66226   -303.49406    38974.157 
   32100    297.39548   -1223.7762     354.3166    466.46494   -425.28626    38974.157 
   32200    297.47321   -1241.4201    358.05743    452.91103   -206.97274    38974.157 
   32300     299.7715   -1254.0915     359.8295    452.33582   -127.55103    38974.157 
   32400    304.04474   -1289.1662    366.89536    443.52272   -214.76584    38974.157 
   32500    299.06694   -1276.4599     367.2614    434.23436   -55.949693    38974.157 
   32600    296.92827   -1268.3781    341.03263    406.48027   -155.88085    38974.157 
   32700    287.76101   -1308.9586    343.98119    327.66829   -366.61327    38974.157 
   32800    288.12514   -1322.3686    333.26437    305.17721    30.157712    38974.157 
   32900     310.8895   -1283.3514    358.63601    471.82539    61.608252    38974.157 
   33000    288.22109   -1320.5951    367.62848    341.74575    440.44914    38974.157 
   33100    301.51336   -1291.1458    354.73685    418.01339    511.96513    38974.157 
   33200     297.4386   -1316.0178    352.12249    372.22292     507.2221    38974.157 
   33300    304.17819   -1348.2357    361.12991    379.28718    630.26713    38974.157 
   33400    287.89826   -1323.4367    354.96845    324.79396    295.05822    38974.157 
   33500    307.05378   -1318.1751    351.67862    412.81386    146.52284    38974.157 
   33600     313.5092   -1281.3082     330.7276    457.72805      656.814    38974.157 
   33700    293.05388   -1292.0142    360.18047    384.58794   -68.055654    38974.157 
   33800    289.78453   -1286.2081    356.94111    372.46847    572.50065    38974.157 
   33900    306.11353   -1298.9516    369.98801    446.12315    365.72881    38974.157 
   34000    303.31603   -1277.1273    364.56245    449.95527   -30.121421    38974.157 
   34100    297.15846   -1306.6936    370.65355    398.81972    163.89976    38974.157 
   34200    296.71971   -1275.6014    338.28335    395.57089    203.03337    38974.157 
   34300    304.99099   -1295.4565    359.65769    434.24537    535.09298    38974.157 
   34400    296.05936   -1282.6666    351.61228    398.86825   -267.26908    38974.157 
   34500    308.38783   -1298.3461    357.61451    444.57144   -443.46723    38974.157 
   34600    302.79131   -1295.3492    361.40031    426.21412   -476.03762    38974.157 
   34700    296.89008   -1271.3364    363.23889    425.55675   -202.98622    38974.157 
   34800    304.49046   -1281.7163     369.4315    455.51091   -76.501143    38974.157 
   34900    304.78861   -1285.8137     367.3249    450.64621    8.0079763    38974.157 
   35000    298.36814   -1295.5256     351.3041    396.07229   -83.037217    38974.157 
   35100    312.95865    -1289.909    375.68833    491.61484   -227.05924    38974.157 
   35200    294.66955   -1263.6329    357.71999    417.76653    237.16452    38974.157 
   35300    290.93296     -1252.92    351.14151    405.11584   -85.354779    38974.157 
   35400    302.87041   -1257.4359    347.85093     450.9333    77.962617    38974.157 
   35500    296.73648   -1262.9626    361.76038      431.762    64.249771    38974.157 
   35600    297.20034   -1295.9432    378.65845    417.76314    215.79023    38974.157 
   35700    307.87791   -1306.3471    360.72519     437.3905    153.20261    38974.157 
   35800    301.88614   -1298.6936    367.60678    425.01013     303.1774    38974.157 
   35900    304.32909   -1286.9619    351.08569    431.19465     486.5231    38974.157 
   36000    304.31806   -1284.7819    358.87466    441.11407    553.26153    38974.157 
   36100    296.71924   -1268.2171    363.17084    427.84047    288.35475    38974.157 
   36200    308.66144   -1284.2634    368.54385    470.81253     647.6297    38974.157 
   36300    308.62339   -1249.9446    373.09135    509.50795    449.96344    38974.157 
   36400    306.92256   -1260.2167    378.62924    497.13347    521.35734    38974.157 
   36500    310.51524   -1215.6622    386.72204    565.91939    355.02343    38974.157 
   36600    297.46117    -1304.194    370.73162    402.75717   -4.8525319    38974.157 
   36700    305.07283   -1265.9841     373.9716    478.39932     249.3356    38974.157 
   36800    307.56859   -1263.7609    361.11361    478.97565    14.577471    38974.157 
   36900    304.30177   -1248.8815    357.26803    475.33465    561.11414    38974.157 
   37000    299.10573   -1246.3298    378.06629    475.34356    214.49784    38974.157 
   37100    299.74378   -1272.7539    360.45243    434.17175    107.18378    38974.157 
   37200    302.16897   -1284.1782    360.82033     434.0095    222.66352    38974.157 
   37300    293.84949   -1257.8073     355.5258     417.7142    260.53409    38974.157 
   37400      295.276   -1232.1911    373.10206    467.31455    95.912978    38974.157 
   37500    298.41098   -1259.2929    357.50696    438.70022    116.20776    38974.157 
   37600    295.32332   -1248.1889    358.34684    436.77414   -127.08305    38974.157 
   37700    311.24081   -1280.8346    356.89444    474.17867    20.533392    38974.157 
   37800    298.73879   -1246.7331    359.83787     455.0635    209.18834    38974.157 
   37900    296.41021    -1254.654    364.76216    441.60674    322.25317    38974.157 
   38000    296.99092    -1268.934    361.88301    427.05623    193.16749    38974.157 
   38100    302.01118   -1275.1981    355.54448    437.00495    111.22746    38974.157 
   38200    293.67038    -1281.135    351.64937    389.70541    586.35846    38974.157 
   38300    304.31249   -1255.2002    347.76535    459.56139    66.979226    38974.157 
   38400    298.55615   -1270.0062    341.90426    413.03639    19.982057    38974.157 
   38500    306.95083   -1288.0652    353.93055     444.7132   -111.35988    38974.157 
   38600    295.08969   -1285.5422    346.34707    386.37162    102.64023    38974.157 
   38700    298.40245   -1316.6393    345.77492    369.58351     238.6763    38974.157 
   38800    292.97124   -1323.9706    365.64021    357.72008    160.42426    38974.157 
   38900     306.2953   -1340.1049    365.59846    401.39674    423.08523    38974.157 
   39000    300.20881   -1301.6632    355.17476    402.07381    181.89865    38974.157 
   39100    300.16746   -1296.6706    354.36349    406.06936    170.10436    38974.157 
   39200    301.50538   -1282.4076    359.70292    431.68182   -353.64652    38974.157 
   39300    287.52353   -1246.8118     363.1602     407.9273   -67.164077    38974.157 
   39400    302.00191   -1293.5583    367.39518    430.45385   -440.61065    38974.157 
   39500    303.84224   -1294.7383    358.53109    428.67671    153.63386    38974.157 
   39600    297.50044   -1303.6421    375.20828    407.96216    71.411057    38974.157 
   39700    306.08439     -1282.14    360.24363    453.05944    345.20626    38974.157 
   39800    298.81355   -1296.0384    368.57852    414.83466    252.84177    38974.157 
   39900    296.89261   -1320.2641    372.36628    385.76779   -44.661065    38974.157 
   40000    294.93914   -1256.9489     371.5648    439.50634    268.11787    38974.157 
   40100    308.03016   -1306.7809    375.55488     452.4703    387.36081    38974.157 
   40200    306.93821   -1272.0767    363.50916    470.22372    668.38356    38974.157 
   40300    300.96121   -1309.1152    390.97202    433.79884    186.86494    38974.157 
   40400    295.16681   -1321.5123    354.47301    358.87388    426.08368    38974.157 
   40500    304.27697   -1299.4799    354.65203    422.00884    422.49978    38974.157 
   40600    300.24381   -1302.5753    368.36998    414.51408    278.66318    38974.157 
   40700    300.46759   -1268.5349    380.14224      461.332    193.63097    38974.157 
   40800    307.86771   -1268.6698    376.16374     490.4605    266.00397    38974.157 
   40900    303.39531   -1279.4538    372.89448    456.31691    229.76535    38974.157 
   41000    297.57279   -1298.4022    373.13409    411.45294    594.13901    38974.157 
   41100    303.17529   -1285.5608    345.97153    422.29864    485.04273    38974.157 
   41200    293.51288   -1309.2791    359.99987    369.20436    200.85239    38974.157 
   41300    297.11272   -1263.4784    369.52215    440.69812    655.63257    38974.157 
   41400    306.43389   -1286.9469    372.79422    462.37307    424.14747    38974.157 
   41500    298.97725   -1284.7064    370.13778    428.46138    277.09451    38974.157 
   41600    290.82925   -1293.4324    347.12867     360.1247   -307.42674    38974.157 
   41700    309.77155   -1264.9172    364.76155     491.3632   -387.25891    38974.157 
   41800    306.15445   -1252.6115    379.00241    501.66143   -317.45841    38974.157 
   41900    304.01768   -1260.3082    359.16167    464.52547   -253.61975    38974.157 
   42000    304.59134   -1245.0922    372.78156    495.93826   -1.0237128    38974.157 
   42100    299.15222   -1235.9978     388.7069    496.52504    157.28023    38974.157 
   42200     294.8368   -1218.2912    350.93271    457.07228   -285.44241    38974.157 
   42300    293.15938   -1200.6518     364.0459    480.28974   -390.06228    38974.157 
   42400    296.40503   -1193.0556    368.00226    506.42196    189.47251    38974.157 
   42500    310.77443   -1214.0309     359.5728     541.5657   -200.00554    38974.157 
   42600     303.1163   -1206.5953    351.72778    506.75534   -335.08369    38974.157 
   42700    300.19217   -1241.5699    345.67895    452.59652    282.19941    38974.157 
   42800    302.51084   -1203.2213    362.98801    518.66988    372.03598    38974.157 
   42900    291.56716   -1199.4704    366.56393    476.83671   -100.13024    38974.157 
   43000    307.92102   -1226.0351     369.8804    527.05134    5.9581003    38974.157 
   43100    293.47818   -1193.4886    392.91027    517.74936    338.65794    38974.157 
   43200    306.60022   -1276.2716    355.77341    456.77476    127.04399    38974.157 
   43300     301.5702   -1257.7928    381.71346    478.59838    147.38942    38974.157 
   43400    295.78344   -1236.5233    355.95238    448.11217    3.0042184    38974.157 
   43500    303.39048   -1213.7138    368.83335    517.97402     52.54025    38974.157 
   43600    297.00872   -1231.5573    405.86839    508.49827   -240.01288    38974.157 
   43700    307.58452    -1199.191    375.24217    557.74568     120.7111    38974.157 
   43800    299.83737   -1243.2081    382.65654    486.34215    477.64581    38974.157 
   43900    308.02673   -1242.4928    371.45626    512.64445     71.88349    38974.157 
   44000    298.52156   -1251.0614    363.41911     453.3407    213.04011    38974.157 
   44100    310.91926   -1281.2647    375.66089    491.07056    417.92197    38974.157 
   44200    293.13236   -1278.6179    355.36368    393.52007    56.560991    38974.157 
   44300    303.78204   -1301.3279    364.36008     427.6456    714.16895    38974.157 
   44400    307.52209   -1293.4749     370.6509    458.59006    209.55001    38974.157 
   44500    297.05145   -1291.7936    354.77356    397.35909    164.01832    38974.157 
   44600    289.70406   -1296.3237    371.24411    376.29449   -107.00553    38974.157 
   44700    305.84834   -1273.7137    360.17582    460.35757     162.4734    38974.157 
   44800    298.98376   -1273.0769    384.55363    454.53592    308.22206    38974.157 
   44900    307.54815   -1257.7618    369.72127    493.49063      -72.433    38974.157 
   45000    301.73065   -1257.6575    381.78887    479.52976    214.80832    38974.157 
   45100    291.27325   -1283.7589    374.12942    398.79345    342.34803    38974.157 
   45200    297.16193   -1259.1886    362.40015    438.08689    695.73365    38974.157 
   45300    297.64461   -1286.6197    380.14799    430.57191    622.44451    38974.157 
   45400    296.99912   -1321.5987    381.61244    394.15778    572.20835    38974.157 
   45500    309.43022   -1347.2978    384.46469    427.15243    1099.3788    38974.157 
   45600      306.944   -1312.1974    378.50418    445.12397    1022.7692    38974.157 
   45700     297.6648   -1284.7866    377.50072    429.84839    873.49929    38974.157 
   45800    293.72351   -1261.9439    414.35396     471.8398    1271.1962    38974.157 
   45900    308.55411   -1325.7291     382.3498     442.6707    546.69943    38974.157 
   46000    302.82543   -1290.4258    373.90919    443.79965    720.77122    38974.157 
   46100    290.24419   -1295.0542    375.48923    384.23538    329.66097    38974.157 
   46200    296.90599   -1279.2318    357.01602    411.50986   -60.276626    38974.157 
   46300    310.39851   -1260.3904    359.19498    493.13971   -23.718477    38974.157 
   46400    296.15985    -1273.731    383.52024    440.16321   -394.25667    38974.157 
   46500    306.68582   -1287.2504    370.65885    461.06589   -537.29292    38974.157 
   46600    295.40246   -1315.7223    375.65207     386.9015   -770.23468    38974.157 
   46700    289.08674   -1305.0784    383.11683    376.63936   -501.71799    38974.157 
   46800    302.14142    -1313.396    383.04357    426.89128   -465.75429    38974.157 
   46900    297.68214   -1293.1615     377.5786    421.62928   -161.14098    38974.157 
   47000    306.60348   -1319.6392    394.22576    451.87422    136.44776    38974.157 
   47100     292.4227   -1354.1775    382.19994    341.60877    77.657891    38974.157 
   47200    298.76931   -1371.5816    368.81107    339.32532    435.11923    38974.157 
   47300    292.31672   -1371.7065     369.9228    311.32664    149.41403    38974.157 
   47400     312.8377   -1366.5313    391.01164    429.77258    412.60764    38974.157 
   47500    302.61755   -1370.7206    370.60889    359.27082    40.947445    38974.157 
   47600    305.48723   -1377.6574    375.45985     370.0758    383.61215    38974.157 
   47700    311.67616   -1330.8355    378.80173    448.04077    40.456784    38974.157 
   47800    303.50077   -1304.4363    376.59741    435.51109   -38.933264    38974.157 
   47900    294.01114   -1332.0694    383.49543    372.14784     260.1968    38974.157 
   48000     299.6714   -1332.4079    390.14731    403.88759    38.508759    38974.157 
   48100    303.02139   -1331.4105    364.20135    393.98744   -264.45282    38974.157 
   48200    297.01085    -1300.206    379.30278    413.29353   -191.50263    38974.157 
   48300    289.59928    -1296.473    390.12576    394.55606   -323.70346    38974.157 
   48400    303.04573   -1317.1163    396.14336      440.333     199.5785    38974.157 
   48500    299.74108   -1345.5728    376.86261      377.751   -302.29831    38974.157 
   48600     307.4107   -1318.0797      360.895    423.72898   -665.97747    38974.157 
   48700    300.57515    -1317.392    383.33333    416.14913   -719.54787    38974.157 
   48800    296.17367   -1318.0274    367.77812     380.1868   -355.36997    38974.157 
   48900    293.01509   -1326.2511    356.22759      346.224    59.398517    38974.157 
   49000    297.15078   -1304.5643     370.0449    400.30585   -158.13369    38974.157 
   49100    318.78814    -1348.459    384.22596    467.78901    151.25794    38974.157 
   49200    312.06372   -1307.1718    370.60665    465.25031   -282.95317    38974.157 
   49300    294.28105   -1317.8747    390.25089    394.31047   -485.53398    38974.157 
   49400    293.88191   -1338.6976    371.66155    353.10521   -265.46071    38974.157 
   49500    293.57257   -1275.9796    384.41857    427.19072   -325.44338    38974.157 
   49600    299.57125   -1281.1645    394.00656    458.54024   -72.915021    38974.157 
   49700    297.63454   -1303.4209    372.19534    405.77286   -289.82191    38974.157 
   49800    292.49881   -1331.7782    379.72527    361.87537   -467.69151    38974.157 
   49900    309.15849    -1298.624    369.59464     459.7355   -106.08941    38974.157 
   50000    305.10059   -1291.5848    378.38604     457.3377    -761.6249    38974.157 
   50100    304.98911   -1320.5504    391.01895    440.50429    46.544415    38974.157 
   50200    315.38239    -1329.626    373.71185    460.80905    163.32782    38974.157 
   50300    301.82423   -1318.5208    377.35446    414.65245    479.48747    38974.157 
   50400    307.75364   -1342.8801    412.39128    451.96542    519.17678    38974.157 
   50500    307.92453   -1342.1424    381.24559    422.32502    410.63376    38974.157 
   50600    305.14122   -1320.7754    377.84237    427.78603    111.16116    38974.157 
   50700    300.25012   -1356.1389    374.61889    367.22781    99.452604    38974.157 
   50800    293.85866   -1336.7372    374.24646    357.54613    290.74713    38974.157 
   50900     310.0202   -1351.2528    372.85118    414.23414   -50.341809    38974.157 
   51000    297.80799   -1309.1577    368.07176    396.69166    86.526998    38974.157 
   51100    293.35472   -1353.4279    381.62386    345.96903   -425.50503    38974.157 
   51200    294.61582   -1343.3638    395.29749    375.37173   -207.88476    38974.157 
   51300    311.27579   -1342.1227    397.95916    454.11243    438.40948    38974.157 
   51400    296.63971   -1304.7182     400.1788    427.99013    229.97281    38974.157 
   51500    303.37106   -1339.7502    374.67856    397.69568    154.60348    38974.157 
   51600     299.7705   -1336.2299    401.12962    411.49305   -175.15646    38974.157 
   51700    305.73354   -1329.8079    385.88944    429.46126    301.44582    38974.157 
   51800    296.58786   -1354.3405    392.88492    370.84099    83.857722    38974.157 
   51900    298.76738    -1359.998    392.38287    374.47208   -223.51879    38974.157 
   52000    301.28901   -1326.8749    386.85389    413.39355    62.393436    38974.157 
   52100    294.67932    -1346.604    400.91196    378.03127   -192.46374    38974.157 
   52200    297.70004    -1342.741    394.64486    389.19647    -191.4924    38974.157 
   52300    302.75332   -1326.4549    391.50415    425.04163    690.98505    38974.157 
   52400    297.27532   -1358.0234    381.97529    359.33667      58.1669    38974.157 
   52500     301.3382    -1356.053    410.26054    407.84304    403.67865    38974.157 
   52600    297.47878   -1348.6207    403.81418    391.49221    596.04761    38974.157 
   52700    294.73592   -1366.6861    389.10622    346.39766    665.32064    38974.157 
   52800    299.69978   -1336.6242    397.75678    407.40822    556.72543    38974.157 
   52900     302.5249   -1350.8346    396.67999    404.81165    508.58045    38974.157 
   53000    296.54918   -1368.5548    392.72102    356.28904    800.74201    38974.157 
   53100    295.59023    -1378.064    419.44546    369.19668    904.28437    38974.157 
   53200    302.97094   -1390.4623    404.54074    375.04838    507.41506    38974.157 
   53300    300.42174   -1385.2224    394.79404    359.09037    384.89668    38974.157 
   53400    298.71181   -1392.7301    405.49299    354.60049    742.83556    38974.157 
   53500    303.74711   -1373.7758    386.53653    377.21729    255.43764    38974.157 
   53600    291.45679   -1315.4337    410.62656    404.44027   -196.68064    38974.157 
   53700    289.71118   -1350.2425    403.19025    354.35375   -85.760354    38974.157 
   53800     294.2027   -1304.5071    417.50555    434.58076   -3.2131199    38974.157 
   53900     300.0185   -1324.6911    409.51215    432.52834     452.8183    38974.157 
   54000    296.32062   -1346.8475    410.06505    394.31375    62.842661    38974.157 
   54100    291.97784   -1326.8891    384.16568     368.8646    373.95986    38974.157 
   54200     299.7783   -1321.5455    413.31469    438.39754   -335.36521    38974.157 
   54300    298.70724   -1307.1638    381.52226    416.17551   -456.68429    38974.157 
   54400      316.278   -1313.2581    391.75162    499.23981   -86.954305    38974.157 
   54500    306.80913   -1307.4525    420.70864    491.46754   -377.97274    38974.157 
   54600    300.68269   -1365.9867     385.8331    370.53734    -252.1525    38974.157 
   54700    297.14368   -1355.5888     394.9687     374.1733   -778.38128    38974.157 
   54800    294.82187   -1308.3019    387.33087    403.39267   -598.21618    38974.157 
   54900    303.48136   -1302.7228    395.07875    455.61869   -530.70821    38974.157 
   55000    293.17263   -1339.6014     387.9275    365.28123   -597.92757    38974.157 
   55100    295.53885   -1327.8237    383.01236    382.77308   -442.44969    38974.157 
   55200    300.54516    -1331.673    387.51761    405.91777   -585.86068    38974.157 
   55300    294.37808   -1363.1433    389.84809     349.0749    -288.2191    38974.157 
   55400      305.476   -1400.6506    369.97833    341.55053    9.7948126    38974.157 
   55500    304.95628   -1364.3771     408.0577    413.56881    215.58735    38974.157 
   55600    286.30308   -1342.7009    394.94192    338.33764     75.12429    38974.157 
   55700    300.26909   -1368.6415    409.34817     389.5397    292.75141    38974.157 
   55800    298.10582   -1314.6931    381.09679    405.51909    302.00571    38974.157 
   55900     299.9179   -1356.8338    398.51351     388.9352    984.67109    38974.157 
   56000    300.92289   -1337.9892    394.65653    408.43726    689.66015    38974.157 
   56100    289.13922   -1360.4139    422.46121    360.88401     243.7096    38974.157 
   56200    310.12092   -1347.5205     393.1265    438.69418    250.42779    38974.157 
   56300     307.1516    -1368.654    404.27553    415.37135    34.774738    38974.157 
   56400    310.34824   -1366.9912    412.52039    439.63859     475.9184    38974.157 
   56500    297.72567   -1353.6241    411.05355    394.83723    323.27602    38974.157 
   56600    297.00324   -1329.1998    401.61232    406.57503    492.48427    38974.157 
   56700    303.78307   -1312.8202    391.72638    443.52423    446.73245    38974.157 
   56800    302.82246   -1300.0598    409.83983    470.08296    414.88739    38974.157 
   56900     295.4865   -1299.3638    429.89858    457.88407    572.59843    38974.157 
   57000    308.50516   -1294.9029     393.1517    484.07891    626.20616    38974.157 
   57100    295.35377   -1351.2639    424.84472     400.3338    62.665468    38974.157 
   57200    286.46092   -1346.2927    409.29451    349.80736   -88.568098    38974.157 
   57300    303.68564   -1325.3361      397.636    436.48035   -85.431743    38974.157 
   57400    295.29551   -1285.8008    419.32894    460.01939   -473.87246    38974.157 
   57500    304.81088   -1343.4618    390.41414    416.18739    -157.8293    38974.157 
   57600    314.09974   -1326.0918    386.04157    470.91114   -527.72472    38974.157 
   57700    305.87686   -1288.3676    388.91953    474.57552    -560.3747    38974.157 
   57800    298.51605   -1308.1702     413.1596    445.94767   -370.26456    38974.157 
   57900    311.21349   -1291.2146    405.15778    511.93929    208.00434    38974.157 
   58000    303.01282   -1328.9669    433.24081    465.43192    280.79005    38974.157 
   58100    299.38206   -1334.3816    420.52426    430.99105    482.85645    38974.157 
   58200    298.41167   -1335.4148    423.56635    428.64084    200.01312    38974.157 
   58300    294.77419   -1309.8962    407.66096    421.91423    301.84102    38974.157 
   58400    297.34514   -1284.4305    393.15907    444.42699    91.574656    38974.157 
   58500    303.75793   -1330.2076    417.99786    452.29541    139.75934    38974.157 
   58600    295.39105   -1345.2814     409.0808    390.71986    237.91861    38974.157 
   58700    304.47901    -1309.906    391.01555     448.8539    144.02333    38974.157 
   58800    306.05471   -1328.3449    390.85525    437.33277    490.55999    38974.157 
   58900    302.32853   -1315.3979    410.77031    453.45658    693.69985    38974.157 
   59000    297.19698    -1311.284    414.63779    438.38664    359.79305    38974.157 
   59100    310.78882   -1377.5507    419.72456    438.26229    65.021854    38974.157 
   59200    313.74916   -1359.1532    421.42332    471.65668   -505.52921    38974.157 
   59300    305.37904   -1356.6192    389.63075    404.79883    74.415893    38974.157 
   59400    307.76348   -1378.4097    396.55114    400.63984   -61.222053    38974.157 
   59500    294.27107   -1375.6518    383.51629    329.75388    -78.68609    38974.157 
   59600    308.77528   -1372.0676    391.21064    406.18651    40.444616    38974.157 
   59700    296.77273   -1345.2079    395.78562    383.70477   -12.838974    38974.157 
   59800    303.41274   -1331.2172    400.09487    431.83219    398.86237    38974.157 
   59900    288.23556    -1378.113    434.32286    350.98725    219.98507    38974.157 
   60000    303.40015    -1379.525    389.30044    372.67337    60.635931    38974.157 
   60100    296.41047   -1377.6137    412.50391    366.38999    285.18017    38974.157 
   60200    309.04454   -1362.2542    450.71037    476.70918    -158.1196    38974.157 
   60300    303.38799    -1380.007     403.2727    386.10911    -33.31498    38974.157 
   60400    299.41475    -1366.436     426.5596    405.11885   -307.92168    38974.157 
   60500    303.03157   -1395.3071    432.35297     398.2881   -200.60433    38974.157 
   60600    295.92203   -1375.6911    386.72373    340.33824   -359.00498    38974.157 
   60700    297.80984   -1349.8508    412.11027    400.04531   -85.917697    38974.157 
   60800    304.43112   -1376.6878    398.85656    389.69791   -329.32206    38974.157 
   60900    283.18386    -1414.269    401.55266    259.36845    84.586601    38974.157 
   61000    307.50376   -1335.4437    427.95541    473.84343   -71.970434    38974.157 
   61100    300.11045   -1310.2796    395.79482    433.63554   -319.47715    38974.157 
   61200     301.0837   -1348.7601    404.59884    408.33106    360.46276    38974.157 
   61300    303.80929   -1386.7757    413.35693    391.31713    43.383615    38974.157 
   61400    304.65477   -1333.5039    434.41559    469.44549    223.80895    38974.157 
   61500    308.36182   -1283.8136    419.21259    520.58519    498.65341    38974.157 
   61600    296.59455   -1332.9769    421.88768    421.23742     939.8589    38974.157 
   61700    298.00973   -1343.0021    424.76627    420.44792    210.79169    38974.157 
   61800    302.05708   -1333.2978    420.74843    444.31544   -187.44938    38974.157 
   61900     303.4085   -1329.0673    411.93067    445.79884   -14.538578    38974.157 
   62000    300.44537      -1307.5    424.45077    466.57563    236.74114    38974.157 
   62100    296.80202   -1414.3318    415.42345    334.35028    195.55474    38974.157 
   62200    306.87892   -1390.5332    411.07885    399.07053    620.69694    38974.157 
   62300    298.95915   -1406.2343    407.45532    344.16963    669.58161    38974.157 
   62400    297.30297   -1397.8288    414.85662    352.53678    418.46906    38974.157 
   62500    298.62293   -1378.5881    405.05268    367.90287    412.97584    38974.157 
   62600    297.48697   -1380.7326    405.32518    360.92806    82.864427    38974.157 
   62700    307.30496   -1388.5498    408.99808    400.88691    -31.04597    38974.157 
   62800    297.20769   -1379.6443    395.63934      351.076   -393.36198    38974.157 
   62900    297.81393    -1366.963    407.77719     378.6184   -127.00693    38974.157 
   63000    295.41188    -1359.577    428.23242    395.66947   -264.30254    38974.157 
   63100    302.65616    -1346.497    414.79873    427.85762    63.577652    38974.157 
   63200    307.91964   -1385.9787    423.30638    420.52759    20.445112    38974.157 
   63300    294.00351   -1308.0963    449.57142    462.16268   -56.550514    38974.157 
   63400    294.94251   -1335.0364    415.79349    405.66269    65.481232    38974.157 
   63500    309.47379    -1330.029    425.88412     486.0364    464.50307    38974.157 
   63600    303.18393   -1353.8793    429.50929    437.55662   -60.500797    38974.157 
   63700    296.96446   -1377.7479    416.47546     372.7159   -249.96819    38974.157 
   63800    304.72046   -1330.5189    422.28744    460.59742   -213.20464    38974.157 
   63900    310.40066   -1387.8509    425.41462    431.90857   -184.62521    38974.157 
   64000    309.66309   -1359.6399    408.39067    439.78238     406.3169    38974.157 
   64100    307.46662   -1325.8579    414.98645    470.29347    108.51722    38974.157 
   64200    306.79391    -1331.215    442.18232    489.11033   -164.12171    38974.157 
   64300    298.32597   -1371.7243    407.32231    375.70229   -159.36485    38974.157 
   64400    301.53639   -1353.9166    413.92911    414.53831   -263.38376    38974.157 
   64500    297.47988   -1356.6895    434.23058    413.84478   -479.37341    38974.157 
   64600    289.68971   -1344.4645    418.01691      374.862   -275.59802    38974.157 
   64700    308.71872   -1357.7672    401.26449    430.28671   -52.953217    38974.157 
   64800    305.79797   -1367.9849    408.11805    413.80232    106.37955    38974.157 
   64900    289.32073   -1400.5835    426.32248    325.39101    111.47851    38974.157 
   65000    300.70872   -1365.7212    435.42629    420.51293     85.58758    38974.157 
   65100    302.72532   -1367.4163     402.5586    395.00885   -299.48434    38974.157 
   65200    296.22134   -1336.4799    431.75165    425.92194   -159.90481    38974.157 
   65300    294.49199   -1386.1395    421.60959    358.35186   -415.04259    38974.157 
   65400    306.44591   -1393.3158    416.92269    400.18666   -273.49584    38974.157 
   65500    304.64212   -1394.4837    403.27513    377.26848    -307.2153    38974.157 
   65600    292.70689   -1374.1954    433.96207    374.62965    211.79495    38974.157 
   65700    289.36189   -1344.1453    413.99573    369.68738    124.72705    38974.157 
   65800    310.25167   -1358.5731    415.61688    450.71933    518.34772    38974.157 
   65900    302.02231   -1363.4796    409.23389    402.46294    737.49443    38974.157 
   66000    303.53181   -1393.1756    421.97429    392.28805    711.28917    38974.157 
   66100    294.31539   -1346.7584    421.54815    396.87826    19.277957    38974.157 
   66200    309.14226   -1374.5216    433.11853     447.2889   -59.422541    38974.157 
   66300     299.4787   -1332.0177    419.20153    432.46631    89.044998    38974.157 
   66400     302.5713    -1329.119    425.73367    455.78944    257.62579    38974.157 
   66500    293.82042   -1314.3215    412.18448      417.728    248.41615    38974.157 
   66600    295.24667   -1359.9569    399.47469    365.78971    114.54085    38974.157 
   66700    313.73548   -1350.7231    411.66051    470.26249   -2.6779006    38974.157 
   66800      302.959   -1365.7584    406.35192     401.5098   -300.62625    38974.157 
   66900    314.39887   -1349.8823     415.7626    478.18545    66.591876    38974.157 
   67000    299.23332   -1362.6783    431.06585    412.56779    399.11458    38974.157 
   67100    305.09653    -1344.664    423.02694    448.88115   -103.96064    38974.157 
   67200     303.6612   -1335.0525    441.96373    470.98185     373.6182    38974.157 
   67300    306.13587   -1361.2866    409.02619    422.92669    106.09359    38974.157 
   67400    307.95411   -1364.7678    407.26418    425.85112    231.54989    38974.157 
   67500    309.72502   -1370.8799    416.16737    436.59726   -158.07093    38974.157 
   67600    298.85367   -1372.3293    425.84441    395.98996     -114.597    38974.157 
   67700    305.59177   -1394.3268    442.40577    420.82185     3.898407    38974.157 
   67800    301.69563   -1392.1487    418.78738    381.87985     279.3032    38974.157 
   67900    300.47171   -1405.0644    423.53993    368.21874   -6.3370633    38974.157 
   68000    292.05222    -1371.474    422.31079    362.75897   -154.09818    38974.157 
   68100    298.72684   -1382.3175    423.12444    382.71206   -352.43448    38974.157 
   68200    312.92406    -1365.273    433.79193     474.1991    190.60493    38974.157 
   68300    302.48255   -1328.2292    465.18649    495.73332    429.19063    38974.157 
   68400    293.58779   -1372.4521    444.91323    391.28115    468.13144    38974.157 
   68500    292.97903   -1379.5788    433.93262    370.43929   -78.686556    38974.157 
   68600    306.74815   -1332.0767    435.49243    481.35321   -138.63307    38974.157 
   68700    298.83252   -1388.7012    426.89951    380.57806    300.31751    38974.157 
   68800    305.75819   -1390.1938    404.90382    388.20054    -207.1497    38974.157 
   68900     296.0663   -1360.1361    417.36439    387.18201   -527.93045    38974.157 
   69000    296.46469    -1395.427    430.64072    366.95703   -229.95404    38974.157 
   69100    298.73021   -1371.9582    452.23401    422.19598    309.90336    38974.157 
   69200    295.92405   -1396.6041     431.6718    364.38241    246.90576    38974.157 
   69300      297.045   -1363.9751    452.47693    422.85193    213.63737    38974.157 
   69400    296.29724    -1380.969    438.29759    388.31967    202.60178    38974.157 
   69500    287.68783   -1362.6865    441.03013    370.66056    530.05555    38974.157 
   69600    303.43953   -1334.6964    426.90129    455.27977    173.91156    38974.157 
   69700    293.55187   -1355.6202    437.13065    400.16911   -8.5845832    38974.157 
   69800    289.80577   -1350.7765    419.93357    370.98798    438.77575    38974.157 
   69900    295.17979   -1338.4419    417.37183    404.90139    244.67952    38974.157 
   70000    305.39292   -1330.1941    448.73233     490.3879    334.34182    38974.157 
   70100    310.99665   -1380.9246    440.22631    456.32379    11.661084    38974.157 
   70200    299.92599   -1330.3246    431.37388    448.34109   -292.75534    38974.157 
   70300     293.1034   -1364.0023    412.05655    364.69845    82.821994    38974.157 
   70400    305.01992   -1325.4554    427.99151    472.71023   -60.940296    38974.157 
   70500    303.45679   -1362.1096     435.1036    436.14645    238.40947    38974.157 
   70600    285.44319   -1334.9356     425.5362    372.83446   -163.99106    38974.157 
   70700    297.09395    -1296.303    442.07119    480.33821   -278.22381    38974.157 
   70800    306.41511   -1386.5681    404.91872    394.79205   -161.30709    38974.157 
   70900    304.42217   -1358.5769    409.15515     418.0672    259.42937    38974.157 
   71000    305.87714   -1404.9833    417.28605    386.32751    18.997188    38974.157 
   71100    308.06206   -1410.0084    412.77716    386.60843    199.19988    38974.157 
   71200    312.99079   -1398.4438    422.29895    429.83509    98.457901    38974.157 
   71300    291.21108    -1385.519    427.89567    350.52035    31.159265    38974.157 
   71400    302.38957   -1410.3243    409.43268    357.46679    353.64806    38974.157 
   71500    297.86088    -1416.246    413.94328    335.71245    345.02357    38974.157 
   71600    296.65843   -1418.0984    424.94779    339.46304    608.97816    38974.157 
   71700    307.77082   -1426.8986    428.73333    384.36604    555.45891    38974.157 
   71800    296.91528   -1429.8254    415.66344    319.60548    650.39927    38974.157 
   71900    293.68462   -1435.8283    412.47932    295.90607    196.93961    38974.157 
   72000    300.97092   -1406.1374    422.94873    368.79705    379.84258    38974.157 
   72100    296.74389   -1417.7894    444.92352    360.13165    135.02182    38974.157 
   72200    310.32592   -1391.8379     434.7195    436.89071    160.65193    38974.157 
   72300    306.55865   -1428.4145    422.06823    370.73991   -190.04951    38974.157 
   72400    284.89691   -1438.8265    422.70835    263.66179    59.647913    38974.157 
   72500    301.51057   -1397.6312    439.45456    396.23319    489.78698    38974.157 
   72600    305.28088   -1441.4956    429.51325    359.36397    348.06113    38974.157 
   72700    300.68368   -1457.8585    404.50277    297.33961  -0.87569121    38974.157 
   72800    302.39562   -1412.6788    421.10896    366.81574    1092.6738    38974.157 
   72900    296.63752   -1429.1375     411.9268    315.30895    633.14802    38974.157 
   73000    302.57776   -1436.4414    410.98243    333.74474    257.76384    38974.157 
   73100    290.18992   -1417.0041    425.31958    311.87203    730.22779    38974.157 
   73200     290.0992   -1390.1178    446.10886    359.14012    137.53222    38974.157 
   73300    300.09512    -1398.908    424.93425    374.07774   -341.10674    38974.157 
   73400    308.55475   -1356.8904    434.90393    464.06637   -253.95989    38974.157 
   73500    300.23546   -1411.4245      410.487    347.74448   -140.02126    38974.157 
   73600    299.13141   -1369.6795    429.52158    403.56453    80.567139    38974.157 
   73700    302.27257   -1406.8579    435.58699     386.5619   -371.21056    38974.157 
   73800    301.77107   -1441.2694    408.60763    322.91827   -94.994991    38974.157 
   73900     289.4704   -1378.7658    436.61053    358.16918    275.35195    38974.157 
   74000    303.09424   -1392.2161    434.39315    403.70084    296.58237    38974.157 
   74100    291.66541   -1428.1153    426.93465    309.00397   -8.5612935    38974.157 
   74200    295.49768   -1384.7603    423.76542    366.40457    425.26332    38974.157 
   74300    301.62085   -1377.5265    444.20904     421.5878    105.16082    38974.157 
   74400    306.12789   -1431.0344     437.2043    381.32111   -426.40452    38974.157 
   74500    292.08325   -1389.9342    437.14845     359.2758   -349.65147    38974.157 
   74600    298.36728   -1419.4067    404.23541    325.11858   -276.98735    38974.157 
   74700    303.99085   -1400.8228    429.52597    394.25463   -191.52069    38974.157 
   74800    295.88851   -1395.2456     442.3763    376.28582   -325.83146    38974.157 
   74900    304.15661   -1410.4829    424.45744    380.27057   -122.32711    38974.157 
   75000    297.28668   -1417.0062    445.77311    364.20271   -124.30471    38974.157 
   75100     306.2697   -1416.9542    405.39414    364.22821   -118.00077    38974.157 
   75200    295.66158   -1438.9423    411.36611    300.55948    324.26772    38974.157 
   75300    303.31301   -1397.6402    446.03766    410.90403    381.26276    38974.157 
   75400    302.88303   -1417.1146    430.78252    374.24293    809.76492    38974.157 
   75500    298.43406   -1401.5307    423.03408    362.09323    465.55489    38974.157 
   75600    297.26219   -1403.2688    418.31931    350.37626    124.41168    38974.157 
   75700    301.30279   -1377.1185    424.40764    400.76558    236.94294    38974.157 
   75800    295.47381   -1382.8063    427.66161    372.14759    198.69516    38974.157 
   75900    300.61308   -1382.1633    421.41608    389.63103   -124.78802    38974.157 
   76000    299.45967   -1375.2767    420.75728    390.67761   -301.74098    38974.157 
   76100    304.81638   -1368.1792    408.03672    409.11735    72.553588    38974.157 
   76200    314.50841   -1381.7223    427.71804    458.79297    285.12857    38974.157 
   76300    293.10961   -1364.7339    448.13566    400.07375     49.96121    38974.157 
   76400    302.47733   -1359.3357    431.56244    430.97931    168.33174    38974.157 
   76500    293.35736    -1350.467    431.83632    399.15422   -50.483115    38974.157 
   76600    304.13308    -1351.551    453.31847    467.95781    544.01391    38974.157 
   76700    303.76785   -1350.9273    435.08446    448.70688   -77.402413    38974.157 
   76800    299.37911   -1316.3336    447.24222    475.74372   -166.58605    38974.157 
   76900    294.30035   -1367.1267    428.38282    383.27704   -44.829641    38974.157 
   77000     305.2873   -1369.4739    426.73754    428.63881    281.44258    38974.157 
   77100    297.70444   -1351.1242    448.70701    434.89522   -222.19654    38974.157 
   77200    297.47313   -1377.7601    422.83992    381.35316    308.56927    38974.157 
   77300    301.79285   -1402.2113     425.1108    378.57735    416.58381    38974.157 
   77400    303.86764   -1338.1149    438.00624    464.88931     379.1486    38974.157 
   77500    288.36434   -1358.4868    413.49843    350.36753    337.46718    38974.157 
   77600    311.58887   -1398.7451    414.58218    415.51942    309.69898    38974.157 
   77700    297.20407   -1350.4147    429.66893     414.3189    393.88868    38974.157 
   77800    293.91681   -1366.4812    438.87515    392.69196    256.80048    38974.157 
   77900    300.64947   -1365.6334    445.17193    430.08018    710.49553    38974.157 
   78000    301.85712   -1390.0058    434.57357    400.53433    391.88985    38974.157 
   78100    282.28175    -1392.666    425.22592    300.59231    386.06421    38974.157 
   78200    306.95695   -1414.9997     407.9381    371.81375    341.77248    38974.157 
   78300    305.65538   -1401.0769    439.25944    411.21122    399.88482    38974.157 
   78400    299.06433   -1385.9424    424.77579    382.25451   -56.188343    38974.157 
   78500    291.79335   -1394.4347    434.72146    351.04605   -584.68364    38974.157 
   78600    291.90661   -1411.2458    401.76201    301.78428   -566.95024    38974.157 
   78700    297.09824   -1395.1955    416.11962     355.5134    227.32736    38974.157 
   78800    300.04638   -1369.2875     430.0556    408.60069   -171.50435    38974.157 
   78900    307.11145   -1417.9861    446.47759     408.0609   -342.78736    38974.157 
   79000    305.87399   -1398.4928    451.29517    426.81305    249.74338    38974.157 
   79100    301.60388   -1408.5542    418.81238    365.08715    14.886368    38974.157 
   79200    296.69007   -1354.8727    436.79668    414.67969    21.290398    38974.157 
   79300    302.54261   -1357.3623    435.82102    437.50453   -208.13106    38974.157 
   79400    296.52188   -1341.0239    431.82333    422.79967   -377.79121    38974.157 
   79500    296.89203    -1313.522    437.58126    457.72227   -902.21562    38974.157 
   79600    302.52914   -1322.5332    439.35433    475.80648    420.24442    38974.157 
   79700    290.13607   -1310.1298     436.7735    429.95838    132.86311    38974.157 
   79800     307.0797   -1337.2927    435.08625    477.22033    27.010047    38974.157 
   79900    299.03856    -1332.242    429.57074    440.63411   -258.59263    38974.157 
   80000    297.85246   -1313.2376    432.10806    456.84776    489.51547    38974.157 
   80100    298.05528   -1326.2527    416.45353    429.08922    244.32996    38974.157 
   80200    294.17129   -1358.8678    424.42886    387.00225    12.549525    38974.157 
   80300    295.45338   -1332.1255    401.65385     396.7288    177.38122    38974.157 
   80400    308.75846   -1323.1919    432.12428     495.9003     383.3543    38974.157 
   80500    292.13033   -1383.6196    436.68201    365.33542   -43.534741    38974.157 
   80600    302.44626   -1355.5837    422.52648    425.55583    362.93793    38974.157 
   80700    304.00647   -1380.0572    436.61027    422.17474    119.40898    38974.157 
   80800    296.24615   -1387.2266    413.21441    356.74949    52.736103    38974.157 
   80900    299.22742   -1354.2531    419.99693    409.89759   -342.47091    38974.157 
   81000    301.28834   -1373.8515    433.86446     413.4245   -177.49271    38974.157 
   81100    296.60104   -1376.8262     421.1869    376.71656   -56.891762    38974.157 
   81200    303.60059   -1418.1117    427.60496     373.2916   -548.91543    38974.157 
   81300    303.61233    -1380.416    431.22211    414.65727    -268.3077    38974.157 
   81400    295.08009   -1391.6655    421.87621    355.73434   -358.55822    38974.157 
   81500    305.03145   -1408.5501    451.89299    413.56874   -144.09103    38974.157 
   81600    292.55602   -1382.2769    434.10388    366.01223   -607.43743    38974.157 
   81700    297.58528   -1414.1899    415.48857    338.07574   -357.70587    38974.157 
   81800    312.60594   -1398.0563    428.96453    435.15937    170.49469    38974.157 
   81900    312.88099   -1401.9316    440.35612    443.91121    497.08666    38974.157 
   82000    301.16503   -1411.9772    419.61678    360.49719      174.934    38974.157 
   82100    303.10484   -1404.8624    405.82742    362.53644    62.881767    38974.157 
   82200    303.01175   -1391.4387    437.25317    406.96774   -135.42764    38974.157 
   82300    300.13213   -1362.1942    420.18444    406.20801   -321.26286    38974.157 
   82400    297.88257   -1359.1288     417.3077    396.29142   -722.78944    38974.157 
   82500    310.92684   -1384.2102    414.56825    427.06655   -1.8941294    38974.157 
   82600    308.76123   -1377.0908    424.94869    434.83827     16.13791    38974.157 
   82700    296.61788    -1365.895    431.55937    398.09581   -119.22277    38974.157 
   82800    306.94103    -1392.503    456.82321    443.12411    43.141923    38974.157 
   82900    296.76925   -1375.3508    412.15603    369.91666    -30.26552    38974.157 
   83000    301.85236   -1341.7615    412.59651    426.78023    713.32175    38974.157 
   83100    295.08298   -1345.6958    452.33919    432.17994    180.30132    38974.157 
   83200    293.47855   -1418.3215     426.1253    326.13315    316.70843    38974.157 
   83300    297.72443   -1426.2208    388.59906     299.7804    257.92161    38974.157 
   83400    308.64365   -1388.1279    414.76332    413.08765    211.14536    38974.157 
   83500    296.64284   -1355.7954    425.64075    402.38895   -362.61558    38974.157 
   83600    291.66291   -1373.3489    422.43063    359.25501   -5.9498205    38974.157 
   83700    290.87114   -1330.1291    422.79185    399.27938    -219.8413    38974.157 
   83800    292.11579   -1395.2506    424.75026    341.70743   -662.80064    38974.157 
   83900    312.96165   -1376.7207    430.57698    459.70531   -361.15821    38974.157 
   84000    295.28669   -1410.9836    436.23118    351.69921     -318.625    38974.157 
   84100    296.25909   -1359.8174    429.43824    400.44059   -873.58714    38974.157 
   84200    299.58406     -1317.35    436.35027    464.75609   -320.16219    38974.157 
   84300    305.24963   -1352.8298    445.29424    463.67044   -290.58051    38974.157 
   84400    294.91206   -1306.1974    466.56919    485.14055   -82.829802    38974.157 
   84500    305.70504   -1374.6473    431.17882    429.78324    169.74991    38974.157 
   84600    298.67351   -1419.8001    432.51271    354.37812    343.31324    38974.157 
   84700    306.09132   -1397.2043    427.48335    405.26599   -174.44219    38974.157 
   84800    305.62932   -1378.7476    448.72767    442.89166    26.161168    38974.157 
   84900    314.15298   -1361.0047    436.10899     486.3048    85.130516    38974.157 
   85000    295.87822   -1419.2801    421.67289    331.50168    402.30886    38974.157 
   85100    289.92624   -1375.3065    455.01898    382.08454    599.65739    38974.157 
   85200    299.98642   -1400.8748     453.0109    399.69928    451.26118    38974.157 
   85300    305.81293   -1391.3035    452.76683    435.19967    241.93077    38974.157 
   85400    297.36212   -1433.9061    427.08108    328.94963    319.66169    38974.157 
   85500    291.21238   -1423.2361    425.43166    310.34511    738.09028    38974.157 
   85600    309.96785   -1451.6789    410.12025    350.84196    147.83414    38974.157 
   85700    296.75705   -1445.0158    416.92671    304.96751    293.19404    38974.157 
   85800    297.29752   -1366.1053    417.19305    386.57219     172.9925    38974.157 
   85900    297.52307   -1409.4759    400.70315     327.7249   -361.91612    38974.157 
   86000     298.8213   -1413.5365    432.16749    360.96042   -143.53461    38974.157 
   86100    290.58653   -1398.8332    434.36085    340.86581     142.8898    38974.157 
   86200    303.32928   -1438.7634    436.93861    360.75478    342.64553    38974.157 
   86300    288.74938   -1450.9293    428.49817    274.65439    70.073446    38974.157 
   86400     303.6963   -1494.9372    414.70413    283.99519    504.04357    38974.157 
   86500    301.62666   -1475.2111    436.43699     316.1572    64.927809    38974.157 
   86600    302.65294   -1468.8482    411.20269    301.89599   -149.86236    38974.157 
   86700    293.78062   -1486.0843    402.56881    236.17074   -442.29809    38974.157 
   86800    300.50374   -1445.1702    440.00565    344.72245   -195.19012    38974.157 
   86900    307.75578   -1457.7023    397.91628    322.67785   -305.30887    38974.157 
   87000    291.00501    -1469.298    437.50771     275.4277   -443.22508    38974.157 
   87100    302.99617   -1429.4238    439.64538    371.30487   -138.76811    38974.157 
   87200    302.23102   -1458.2734    403.05177    302.42452   -19.269707    38974.157 
   87300    304.97433   -1453.2883    405.75991    322.44093    211.34983    38974.157 
   87400    300.93466   -1444.0408    429.20304    336.98505   -0.1709234    38974.157 
   87500    307.44236   -1480.3998    402.16136    302.81741    195.40235    38974.157 
   87600    299.99849   -1440.6698    421.52795    328.47562    717.36363    38974.157 
   87700    308.86794    -1448.717    416.12788    354.87061    322.01569    38974.157 
   87800    292.09719   -1428.5961    435.80058    319.32858    15.771808    38974.157 
   87900     301.4714   -1469.4977    414.45358     299.1897    121.67339    38974.157 
   88000    301.83989   -1435.6802    432.38969    352.59858    389.79377    38974.157 
   88100    299.83737   -1426.5246     429.9339    350.30296   -279.88221    38974.157 
   88200    301.06407    -1389.163    423.72098    386.96208    222.70012    38974.157 
   88300    304.68457   -1400.5442    446.41361    414.53705    165.79373    38974.157 
   88400    297.74335   -1416.7709    437.03229    357.74859    66.419318    38974.157 
   88500    307.21563    -1403.636     430.6372    407.03856    495.76112    38974.157 
   88600    294.34616   -1389.5458    432.41939    365.10032    292.42748    38974.157 
   88700    302.66682   -1398.1327    431.05063    392.52166   -71.881961    38974.157 
   88800    306.06061   -1342.9132    443.08661    475.02233   -214.62856    38974.157 
   88900      301.414   -1358.4838    420.56264    416.05484   -248.06237    38974.157 
   89000    294.56098   -1387.5783    427.79557    363.40898    -416.8064    38974.157 
   89100    303.14719   -1370.1739    425.15546     416.7432   -278.44476    38974.157 
   89200    295.69896   -1376.7278    436.24111    387.81694   -749.75165    38974.157 
   89300    298.42524   -1380.9968    409.66595    369.21942   -629.45417    38974.157 
   89400      297.456   -1408.0803    451.41636    379.53243   -526.95662    38974.157 
   89500    301.33172   -1396.9078    410.75281    367.45139   -653.69322    38974.157 
   89600    289.64319   -1378.9492    429.16449    351.31585    44.785683    38974.157 
   89700    299.87114   -1402.7662    430.40342    374.68262    107.19943    38974.157 
   89800    303.68013   -1397.8718    428.14318    394.42703     151.0406    38974.157 
   89900    293.47863   -1412.9049    438.50206    343.92685   -74.498194    38974.157 
   90000    303.64389   -1353.4018    450.57445    461.16557   -116.87427    38974.157 
   90100    295.68177   -1395.0536    453.77617      386.949   -167.66887    38974.157 
   90200    302.75511   -1379.4312      436.845    417.41417    -306.4461    38974.157 
   90300    293.81391   -1404.7728    429.68973    344.75279   -282.26242    38974.157 
   90400    307.39169   -1376.3907    440.94642    445.38395    843.23369    38974.157 
[...]
  984000    296.39567   -1530.0323    490.44484    291.84582    148.29506    38974.157 
  984100    311.22056    -1488.872    464.36653    373.52241   -302.92938    38974.157 
  984200     296.0605   -1518.0461    463.99058    275.87212    58.910968    38974.157 
  984300    293.01299   -1493.7446    522.32083    344.81427    639.81407    38974.157 
  984400    294.99875   -1554.0887     499.6568    270.72633    847.28787    38974.157 
  984500    293.31535   -1518.3493    489.46621    288.71312    459.12242    38974.157 
  984600    302.14291   -1500.2545    503.22286    360.21866    70.989301    38974.157 
  984700    296.63341   -1493.9775    487.29217    325.81588   -222.24348    38974.157 
  984800    292.83182   -1493.7757    475.17694     296.8254   -92.098429    38974.157 
  984900    301.13571   -1520.2716    478.93776    311.39207    -668.1174    38974.157 
  985000    305.36536   -1475.7324    492.30917    388.30263   -826.02388    38974.157 
  985100    295.96454   -1488.7117    504.70031    345.48525   -767.48597    38974.157 
  985200    296.59027   -1521.3772    496.15412    307.08439   -874.86224    38974.157 
  985300    287.42991   -1503.6336    475.19425    262.71902   -72.532707    38974.157 
  985400    306.54286   -1504.5161    497.61477    370.11393    4.8793038    38974.157 
  985500    308.56092   -1483.9407    496.56056    398.70039    198.32125    38974.157 
  985600    295.87553   -1483.6697      486.441    331.86812  -0.84117233    38974.157 
  985700    304.69727   -1529.8489    459.77774    298.65353   -53.774759    38974.157 
  985800    303.83314   -1534.6844    499.49238    329.65094   -108.60176    38974.157 
  985900    298.16748   -1524.8144    450.80842    265.38638   -142.32336    38974.157 
  986000    295.84082   -1510.7197    482.63817    300.85934    42.029428    38974.157 
  986100    294.32586   -1499.6333    492.91773    315.41993   -159.53843    38974.157 
  986200    304.57523    -1491.766    487.54756    363.95806     137.8667    38974.157 
  986300    303.84986   -1517.1315    483.76654    331.55311   -307.17842    38974.157 
  986400    297.89589   -1508.5953    461.26739     290.8445  -0.20536712    38974.157 
  986500    293.38965   -1480.6132    497.39671    334.71353   -2.9653126    38974.157 
  986600    305.60392   -1540.2688    471.94375    304.47248    300.93413    38974.157 
  986700    311.07372   -1578.1406    488.29197    307.51963    92.767265    38974.157 
  986800    301.51394    -1560.411    464.97919    258.99311   -130.20961    38974.157 
  986900    301.92673    -1504.763    487.25176    338.76798     59.52166    38974.157 
  987000    292.01878    -1508.508    490.92321    294.18716    252.96137    38974.157 
  987100    301.46517    -1519.301    480.98912    315.89396   -104.48186    38974.157 
  987200    298.79505   -1557.0356    501.68366    286.85957   -40.062797    38974.157 
  987300    289.82156   -1562.4036     490.0212    229.51942    5.1679421    38974.157 
  987400      308.331   -1575.4901    474.63604    284.19372    522.80876    38974.157 
  987500     314.7604   -1572.1672    496.54975    338.31174    181.31445    38974.157 
  987600    307.15251   -1558.8172    486.56217    307.49881    190.79593    38974.157 
  987700    297.89869   -1543.4641    493.16348    287.88435    435.80259    38974.157 
  987800    299.56576   -1568.2441     436.6657    214.09513    255.62836    38974.157 
  987900    297.91986   -1527.6481    496.56376    307.19577   -484.05157    38974.157 
  988000    302.96003   -1529.9563    490.66261    321.62728    29.185999    38974.157 
  988100    298.38951   -1530.1694    455.52093    265.74136    335.06282    38974.157 
  988200    299.58332   -1546.6283    487.55667    286.68085   -361.10305    38974.157 
  988300    295.72546   -1522.3166    486.18624    292.29226   -138.80009    38974.157 
  988400     292.9102   -1596.7494     490.8863    209.91314   -90.439148    38974.157 
  988500    309.17999   -1539.9739    463.02306    311.91071    85.450003    38974.157 
  988600    303.09334   -1530.7415    486.94859    317.72685   -295.77511    38974.157 
  988700    291.83032   -1499.0073    500.09561    312.01372   -442.39274    38974.157 
  988800    301.58072   -1518.0325    492.41425    329.10667   -293.25243    38974.157 
  988900    308.89533   -1540.0829    498.29197    345.79186    426.36844    38974.157 
  989000    307.25861   -1522.9413    484.30733    341.59649     206.5903    38974.157 
  989100    304.37993   -1490.8373    496.95754     373.4195    246.12264    38974.157 
  989200    316.05283   -1499.1588    494.37865    414.95473     563.2545    38974.157 
  989300    308.97891   -1479.1329    488.27909    397.10441    642.68925    38974.157 
  989400    305.17795   -1524.8491    494.67759    340.71254    233.96423    38974.157 
  989500    301.73091    -1531.012    466.45013    290.83776    186.72489    38974.157 
  989600    298.08606   -1504.8489    487.76546    321.94325    63.489653    38974.157 
  989700     293.9033   -1576.4995    494.37052    238.10835    262.69563    38974.157 
  989800    300.46896    -1587.421    481.57482    243.88462    239.64792    38974.157 
  989900    302.76262   -1546.9425     481.1599    294.25148     533.5182    38974.157 
  990000    297.38777   -1524.2628    510.18022    321.80728    276.50543    38974.157 
  990100    299.47522   -1535.9519    477.02568    286.34066    -168.0851    38974.157 
  990200    292.09374   -1520.9852    505.89737    297.02086   -309.41645    38974.157 
  990300    297.75506   -1532.2884    491.07204    296.32342   -280.01008    38974.157 
  990400    291.35462   -1486.1069     483.3599    306.04146   -298.77221    38974.157 
  990500    311.06689   -1547.5021    516.39587     366.2313   -615.81829    38974.157 
  990600    299.59412   -1569.8092    475.03996    251.03175    143.02176    38974.157 
  990700    296.96869   -1538.3611    499.84376    295.49001   -683.42528    38974.157 
  990800    305.15667   -1525.7137    481.23179     326.3065   -64.729134    38974.157 
  990900    295.46903   -1529.0854    493.01615    291.20151    141.89438    38974.157 
  991000    301.91075   -1534.0941    527.63289    349.74625    3.8768442    38974.157 
  991100    298.73249   -1524.2332    479.08961    296.78691    51.117473    38974.157 
  991200    300.06788     -1528.08    481.15494    301.00407    398.41183    38974.157 
  991300    288.79416    -1551.904    469.99933    215.38198    385.97615    38974.157 
  991400    289.77263   -1552.2632    486.98972    236.40853    40.999423    38974.157 
  991500    299.97441   -1535.6221     490.7352    302.62239    293.61222    38974.157 
  991600    301.34187   -1534.9644     507.7042    326.39187    438.61455    38974.157 
  991700    310.06108    -1502.383    488.88925    379.32569   -14.378139    38974.157 
  991800    297.27356   -1552.6117    477.08484    259.84997    210.42285    38974.157 
  991900    290.32216   -1509.3228     520.1636    314.99141  -0.61841713    38974.157 
  992000    296.44866   -1495.7285    492.92525    328.86807    255.91495    38974.157 
  992100    297.27989   -1517.3424    484.61984    302.68275    313.95439    38974.157 
  992200    304.59073   -1552.8765     494.0892    309.45887    381.52274    38974.157 
  992300     308.0932   -1526.0544     499.9011    357.82626    674.78688    38974.157 
  992400    295.23685   -1532.0683    492.44384    286.60326    53.871634    38974.157 
  992500    299.08302   -1536.9338    491.66439    298.23568    400.63109    38974.157 
  992600      297.324   -1543.3767    483.49116    275.71786    716.86932    38974.157 
  992700    304.05832   -1544.7886     494.9094    315.97536    696.48722    38974.157 
  992800    305.25413   -1530.8698    520.10477     360.4612    434.84427    38974.157 
  992900    304.58994   -1543.3343    493.82678     318.7351     160.0755    38974.157 
  993000    297.53415   -1522.9083    498.84446    312.48359    353.36111    38974.157 
  993100    302.77179   -1529.6927     510.6498    341.03241    480.47745    38974.157 
  993200    292.27514   -1538.3642    498.91791    273.47722    407.93293    38974.157 
  993300    302.42101   -1538.2841    511.80488    332.02037    331.83177    38974.157 
  993400    304.42381   -1557.1619    490.86057    301.19495    627.27553    38974.157 
  993500    291.72264   -1499.7882    484.67674    295.33022   -93.162268    38974.157 
  993600    292.32029   -1518.8555    489.40587    283.67665   -242.43954    38974.157 
  993700    298.24759   -1526.4699    504.86806    318.15043   -487.29803    38974.157 
  993800    296.15924   -1563.0554    476.25594    243.57177   -542.44952    38974.157 
  993900    302.79628   -1534.1994    485.73621    311.72211   -623.43552    38974.157 
  994000    298.24099   -1542.7261    517.92957    314.92608   -267.85066    38974.157 
  994100     303.9983   -1522.8296    490.77506    333.53034   -60.867359    38974.157 
  994200    295.07507    -1521.224    484.24948    288.52657   -434.94902    38974.157 
  994300    298.23972   -1546.7708    501.02356    293.96967   -286.36801    38974.157 
  994400    304.74711   -1479.0223    493.32503    383.25131   -830.19761    38974.157 
  994500    295.29948   -1490.1915    495.87786    332.19545    473.88616    38974.157 
  994600    303.06254   -1486.4213    506.61026    381.57039    802.60023    38974.157 
  994700    293.39636   -1474.8294    487.27326    330.40397    20.040659    38974.157 
  994800    306.65314   -1475.8567    524.44495    426.09891    291.03175    38974.157 
  994900    306.14083   -1470.1793    514.17434    419.20442     112.0783    38974.157 
  995000    304.86893   -1447.9128    514.90209    436.48515    53.754358    38974.157 
  995100    309.63845   -1472.4244    482.03522    400.53171   -582.76925    38974.157 
  995200    296.59032    -1486.003    505.78362    352.08834   -715.19471    38974.157 
  995300     294.7595   -1483.0078      480.961    322.03666   -577.93523    38974.157 
  995400    293.38811   -1487.5283    499.57618    329.97091   -524.98209    38974.157 
  995500    304.69569    -1509.702    493.90614    352.92182   -519.03342    38974.157 
  995600    300.47208   -1470.7347    494.32752    373.33765    -203.9378    38974.157 
  995700    303.41378    -1500.116    479.67082    342.51405   -277.64184    38974.157 
  995800    295.05475   -1453.2464    509.32197    381.48536   -245.54344    38974.157 
  995900    309.82111   -1459.8753    485.67057    417.53666    75.840654    38974.157 
  996000    305.74601   -1474.3956    494.80809    393.84823    81.387454    38974.157 
  996100    304.64387   -1453.8764    504.75439    419.36285   -374.58718    38974.157 
  996200    304.38061   -1455.3396    494.08702    406.04972    120.49608    38974.157 
  996300    303.64902   -1541.7069    469.69421    292.00324   -147.47703    38974.157 
  996400    299.72845   -1517.4802    499.74856    328.67276   -534.00736    38974.157 
  996500     301.8092   -1494.8538    487.51712    348.41463   -187.30687    38974.157 
  996600    292.30581   -1498.0522    491.45669    306.46578   -777.95878    38974.157 
  996700    303.98985   -1483.2006    491.60745    373.95376   -654.36609    38974.157 
  996800     292.3861   -1465.3277     502.2877      350.382   -115.95433    38974.157 
  996900    301.22169    -1464.307    488.19828    377.00338   -87.977889    38974.157 
  997000    299.05585   -1450.4311    493.29263    386.24456   -288.66344    38974.157 
  997100    294.75871   -1455.7277    493.67009    362.02233   -214.70174    38974.157 
  997200    295.35589   -1440.5796    498.50307    384.68594    166.65211    38974.157 
  997300    295.48702   -1464.2974    476.37224    339.42637    88.268984    38974.157 
  997400    314.21585   -1503.2889    483.10615    391.30018   -40.711073    38974.157 
  997500    296.74773   -1503.9219    511.52176     340.6146    226.27699    38974.157 
  997600    294.98406   -1492.2691    497.62213    330.44521    81.297155    38974.157 
  997700    305.07905   -1439.7224    484.70507    415.42242    -331.8797    38974.157 
  997800    309.39141   -1431.9591    500.67017    458.52223    72.259989    38974.157 
  997900     301.3865   -1456.9403    503.97602    400.88819   -109.57219    38974.157 
  998000    302.17391   -1453.8727    482.12095    385.63782    141.71461    38974.157 
  998100    306.00094   -1417.9821    514.24938    470.84818    439.10392    38974.157 
  998200    298.24593   -1428.5126    503.23053     414.4627    1051.8581    38974.157 
  998300    303.64799   -1469.3664    538.53507    433.17997    731.91723    38974.157 
  998400    307.66474   -1437.7785    511.64162    455.91796    490.27025    38974.157 
  998500    298.25589   -1476.6957    498.47345    361.56723     638.9088    38974.157 
  998600    299.95675   -1443.3001    493.10095    397.23078    510.27272    38974.157 
  998700    288.98276   -1447.9568    492.90408    343.08116   -227.44539    38974.157 
  998800     299.3304   -1424.7995    496.02186    415.83866   -196.76657    38974.157 
  998900    286.76738   -1438.2919    537.87564    387.76594   -538.32464    38974.157 
  999000    291.92726   -1444.3927    483.49632    350.46447   -243.72824    38974.157 
  999100    316.73093   -1446.2667    522.36972    498.88391   -304.44938    38974.157 
  999200    292.51768   -1424.4529     516.4115     405.9716    220.24969    38974.157 
  999300    297.19745   -1436.8657    492.38223    390.55149    120.74402    38974.157 
  999400     305.6008   -1482.7577    526.75756    416.78336   -297.19656    38974.157 
  999500    302.95525   -1473.2024     505.5557    393.25281   -380.04107    38974.157 
  999600    288.64625     -1519.77     495.5232    272.37549    -657.8158    38974.157 
  999700    297.20981   -1497.9138    501.19051    338.36721   -130.24622    38974.157 
  999800    301.78004   -1490.9731    514.78811    379.43534   -601.69034    38974.157 
  999900    297.43844   -1493.2725    511.05267    353.89767   -98.465546    38974.157 
 1000000    295.55088   -1473.2418    500.03339    354.43002   -473.90101    38974.157 
 1000100    301.43001   -1428.4136    532.99231    458.62665    -61.79631    38974.157 
 1000200    307.51954   -1415.6165    492.05983     457.8459    21.129624    38974.157 
 1000300     301.3211   -1475.1084    505.15643    383.60676   -195.25051    38974.157 
 1000400    300.07878   -1474.5245    496.56673    370.02033    251.45477    38974.157 
 1000500    302.71284   -1476.0054    525.99588    409.80097    271.92952    38974.157 
 1000600    293.85149   -1484.8556    535.18858    370.33761    398.42067    38974.157 
 1000700    299.58715   -1476.1122    514.13119    383.78864    410.13234    38974.157 
 1000800     297.4709   -1483.9605     525.8637    378.16647    484.77004    38974.157 
 1000900    307.79392   -1453.8162    502.83577    431.65471    408.31198    38974.157 
 1001000    310.56238   -1470.7183    489.33108    413.68408    74.100633    38974.157 
 1001100    297.79371   -1495.0676    493.56586    336.21163    57.177634    38974.157 
 1001200    299.85578   -1499.6391    508.61115    355.94837    485.23874    38974.157 
 1001300    297.33631   -1489.8301    522.11663    367.94526   -132.23528    38974.157 
 1001400    292.94592   -1474.0676    501.31834    343.18749    62.860458    38974.157 
 1001500     310.3604   -1486.0677    479.57163    387.66792    29.101313    38974.157 
 1001600    301.28826   -1469.8825     500.3625     383.8912    192.50022    38974.157 
 1001700    293.39807   -1458.6305    497.67159     357.0089    202.79664    38974.157 
 1001800    291.88037   -1482.1597     492.1459    321.13636    499.27197    38974.157 
 1001900    283.92792   -1476.0431    508.82114    308.20522    356.57193    38974.157 
 1002000    295.88318   -1479.4882    514.24205    363.88496   -108.92942    38974.157 
 1002100    293.90215    -1469.095    486.99448    338.13165    173.24954    38974.157 
 1002200     290.2337   -1456.0433    467.02869    314.73862   -118.00756    38974.157 
 1002300    298.24711   -1450.8898    522.93509    411.79544   -224.41734    38974.157 
 1002400    304.11607   -1469.4401    499.97672    396.65056    258.35703    38974.157 
 1002500    301.83333   -1481.0504    509.15013     383.9594    780.85317    38974.157 
 1002600     293.7746   -1504.9669    506.19366    320.88604    325.99586    38974.157 
 1002700    304.02696   -1487.4467    506.77931    385.04627    467.67412    38974.157 
 1002800    291.77624   -1505.0329    496.16108    301.81061    194.32604    38974.157 
 1002900    293.48167   -1496.2388    489.53119    311.63575    589.16439    38974.157 
 1003000    302.09435   -1525.0589    507.22352     339.1968    486.91504    38974.157 
 1003100    304.03816    -1477.784    513.19556    401.17555    288.85574    38974.157 
 1003200    305.48373   -1505.4371    514.71191    381.53236   -83.919648    38974.157 
 1003300    300.67431   -1515.0892    480.34912    315.91325    13.431312    38974.157 
 1003400    308.31692   -1488.6841    492.08311    388.38354    453.01949    38974.157 
 1003500    294.68472   -1512.0372     497.4812    309.19153    428.96815    38974.157 
 1003600    298.77746    -1510.303    484.93175    316.76119    367.63741    38974.157 
 1003700    289.65263   -1519.3001    505.90257    287.74542   -256.13912    38974.157 
 1003800    300.22282   -1494.9219    481.93415    335.63742    223.42309    38974.157 
 1003900    304.03882   -1526.8638    508.79866    347.70174    877.22685    38974.157 
 1004000     299.7852   -1541.1255    489.37812    294.91199    877.10109    38974.157 
 1004100    298.60156   -1506.1627    497.75847    332.93804    398.49938    38974.157 
 1004200    304.03383   -1502.6957    501.90804    364.95684    91.366702    38974.157 
 1004300    299.91455   -1531.9611    466.63347    281.91275    107.60773    38974.157 
 1004400     303.0852   -1510.2473    524.75448    375.99039    205.91628    38974.157 
 1004500    301.12673   -1515.4499    455.36248    292.59822   -189.94199    38974.157 
 1004600    305.29025   -1566.1546    493.95774    299.19163     -493.203    38974.157 
 1004700    296.06489   -1545.7843    494.24188      278.405   -187.52202    38974.157 
 1004800     302.4312   -1544.1298    489.63799    304.05361    314.42568    38974.157 
 1004900    295.10556   -1544.7762    510.50187    291.36369   -214.83105    38974.157 
 1005000    297.10138   -1559.3828    482.24137    257.46196    9.2206847    38974.157 
 1005066     305.1488   -1586.9809    488.93378    272.70593    242.95936    38974.157 
Loop time of 603.016 on 32 procs for 1000000 steps with 1508 atoms

Performance: 143.280 ns/day, 0.168 hours/ns, 1658.329 timesteps/s
100.0% CPU use with 32 MPI tasks x no OpenMP threads

MPI task timing breakdown:
Section |  min time  |  avg time  |  max time  |%varavg| %total
---------------------------------------------------------------
Pair    | 238.09     | 264.87     | 300.42     | 101.8 | 43.92
Bond    | 1.4138     | 1.5078     | 1.6673     |   4.4 |  0.25
Neigh   | 39.477     | 39.577     | 39.666     |   1.2 |  6.56
Comm    | 250.29     | 285.78     | 312.64     |  98.1 | 47.39
Output  | 0.38735    | 0.40491    | 0.88855    |  13.7 |  0.07
Modify  | 8.0068     | 8.1403     | 8.3132     |   2.8 |  1.35
Other   |            | 2.733      |            |       |  0.45

Nlocal:        47.1250 ave          72 max          18 min
Histogram: 2 1 2 3 5 9 2 2 3 3
Nghost:        1922.62 ave        1964 max        1880 min
Histogram: 2 1 4 4 6 6 1 2 3 3
Neighs:        5209.09 ave        9249 max        1852 min
Histogram: 3 2 6 4 6 1 3 3 3 1

Total # of neighbors = 166691
Ave neighs/atom = 110.53780
Ave special neighs/atom = 2.0145889
Neighbor list builds = 49873
Dangerous builds = 0
The system volume is 38974.1570813274
Lattice vectors
33.9046222791775 0 0
0 33.9046222791775 0
0 0 33.9046222791775
Total wall time: 0:10:07
