LAMMPS data file
 1515 atoms
 1014 bonds
 524 angles
 28 dihedrals
 2 impropers
 7 atom types
 7 bond types
 4 angle types
 3 dihedral types
 1 improper types
 0 15 xlo xhi
 0 15 ylo yhi
 0 15 zlo zhi
 0 0 0 xy xz yz

# Atom types
#
# 1 C_3
# 2 N_2
# 3 C_2
# 4 O_2
# 5 H_
# 6 H__HB
# 7 O_3

# Bond Coeffs
#
# 1 C_3*C_3
# 2 C_3*H_
# 3 N_2*C_2
# 4 N_2*H__HB
# 5 C_2*O_2
# 6 C_3*C_2
# 7 O_3*H__HB

# Angle Coeffs
#
# 1 C_3
# 2 N_2
# 3 C_2
# 4 O_3

# Dihedral Coeffs
#
# 1 A1
# 2 C1
# 3 B1

# Inversion Coeffs
#
# 1 1

 Masses

 1 12.01
 2 14.01
 3 12.01
 4 16
 5 1.01
 6 1.01
 7 16

 Atoms # full

1 1 1 0 5.14040496984485 4.43218165652743 2.6302792616807
2 1 2 0 2.59051608384448 6.52565410814109 1.41088763739158
3 1 3 0 3.88618383514351 6.13792982312231 1.30033024482829
4 1 4 0 4.81838989714242 6.95650851495974 1.11342726667601
5 1 1 0 4.22285470431021 4.69013697743819 1.40150515199612
6 1 1 0 4.84309878498027 4.17361137559495 0.0624290066502891
7 1 5 0 4.67910398756125 4.82544152918228 3.53917253721072
8 1 5 0 5.29709120358113 3.36116214675821 2.77188972687037
9 1 5 0 6.11380393551583 4.90971309424409 2.49774406023251
10 1 6 0 1.94851178924295 5.81213399259204 1.55403207640358
11 1 5 0 3.29704551349688 4.1326118683851 1.57906163591291
12 1 5 0 5.78759758756619 4.69821083272076 -0.112137517910045
13 1 5 0 4.18379326769154 4.43938313430902 -0.769772079111242
14 1 5 0 5.05591607773956 2.69790041681217 0.0190578638129304
15 1 6 0 2.06678150028305 7.77281236054545 1.34887159558415
16 2 6 0 8.21289902131073 3.90107825672254 12.2201552626211
17 2 7 0 9.17289902131073 3.90107825672254 12.2201552626211
18 2 6 0 9.41289902131073 2.97107825672254 12.2201552626211
19 3 6 0 6.90829658109695 5.05339578999206 8.65008537657559
20 3 7 0 7.86829658109695 5.05339578999206 8.65008537657559
21 3 6 0 8.10829658109695 4.12339578999206 8.65008537657559
22 4 6 0 1.72395872578025 4.04042839579284 10.1675237494055
23 4 7 0 2.68395872578025 4.04042839579284 10.1675237494055
24 4 6 0 2.92395872578025 3.11042839579284 10.1675237494055
25 5 6 0 10.1014019634761 7.54550807801075 5.8616477670148
26 5 7 0 11.0614019634761 7.54550807801075 5.8616477670148
27 5 6 0 11.3014019634761 6.61550807801075 5.8616477670148
28 6 6 0 7.04970337727107 9.35950007097796 8.7375185417477
29 6 7 0 8.00970337727107 9.35950007097796 8.7375185417477
30 6 6 0 8.24970337727107 8.42950007097796 8.7375185417477
31 7 6 0 6.39504706414416 13.1293508449476 12.3197966523003
32 7 7 0 7.35504706414416 13.1293508449476 12.3197966523003
33 7 6 0 7.59504706414416 12.1993508449476 12.3197966523003
34 8 6 0 12.3955220163055 7.83548661199398 8.648089467315
35 8 7 0 13.3555220163055 7.83548661199398 8.648089467315
36 8 6 0 13.5955220163055 6.90548661199398 8.648089467315
37 9 6 0 11.7434684971534 5.36312325782143 0.0707452709320933
38 9 7 0 12.7034684971534 5.36312325782143 0.0707452709320933
39 9 6 0 12.9434684971534 4.43312325782143 0.0707452709320933
40 10 6 0 2.55414938947186 9.44590109208599 3.1190756871365
41 10 7 0 3.51414938947186 9.44590109208599 3.1190756871365
42 10 6 0 3.75414938947186 8.51590109208599 3.1190756871365
43 11 6 0 -0.418860637145117 13.7451348946802 9.21336016617715
44 11 7 0 0.541139362854883 13.7451348946802 9.21336016617715
45 11 6 0 0.781139362854883 12.8151348946802 9.21336016617715
46 12 6 0 4.56208575560711 15.0612715181801 10.1959927682765
47 12 7 0 5.52208575560711 15.0612715181801 10.1959927682765
48 12 6 0 5.76208575560711 14.1312715181801 10.1959927682765
49 13 6 0 4.86334766887128 9.03778656892479 5.57255486492068
50 13 7 0 5.82334766887128 9.03778656892479 5.57255486492068
51 13 6 0 6.06334766887128 8.10778656892479 5.57255486492068
52 14 6 0 4.05227752679028 10.0030089069065 9.27952788071707
53 14 7 0 5.01227752679028 10.0030089069065 9.27952788071707
54 14 6 0 5.25227752679028 9.07300890690647 9.27952788071707
55 15 6 0 0.136533913174644 9.30761734064668 12.2432887530886
56 15 7 0 1.09653391317464 9.30761734064668 12.2432887530886
57 15 6 0 1.33653391317464 8.37761734064668 12.2432887530886
58 16 6 0 8.90291834643111 1.97038076858968 7.22985038068146
59 16 7 0 9.86291834643111 1.97038076858968 7.22985038068146
60 16 6 0 10.1029183464311 1.04038076858968 7.22985038068146
61 17 6 0 8.5580550266616 15.16479288036 5.54675082326867
62 17 7 0 9.5180550266616 15.16479288036 5.54675082326867
63 17 6 0 9.75805502666161 14.23479288036 5.54675082326867
64 18 6 0 4.92750038436614 2.53777045797557 12.8802037308924
65 18 7 0 5.88750038436614 2.53777045797557 12.8802037308924
66 18 6 0 6.12750038436614 1.60777045797557 12.8802037308924
67 19 6 0 10.5874165186845 12.9022500481829 7.73683528066613
68 19 7 0 11.5474165186845 12.9022500481829 7.73683528066613
69 19 6 0 11.7874165186845 11.9722500481829 7.73683528066613
70 20 6 0 8.76289778083563 3.19556520710699 2.93890677974559
71 20 7 0 9.72289778083563 3.19556520710699 2.93890677974559
72 20 6 0 9.96289778083563 2.26556520710699 2.93890677974559
73 21 6 0 6.17581874990836 8.24960578041151 8.51407091715373
74 21 7 0 7.13581874990836 8.24960578041151 8.51407091715373
75 21 6 0 7.37581874990836 7.31960578041151 8.51407091715373
76 22 6 0 1.6245790540427 1.20947701548226 13.5725521109998
77 22 7 0 2.5845790540427 1.20947701548226 13.5725521109998
78 22 6 0 2.8245790540427 0.279477015482262 13.5725521109998
79 23 6 0 11.6552684961073 12.4455501166545 7.09497823496349
80 23 7 0 12.6152684961073 12.4455501166545 7.09497823496349
81 23 6 0 12.8552684961073 11.5155501166545 7.09497823496349
82 24 6 0 11.3235196207836 12.6409038858861 1.22722666477785
83 24 7 0 12.2835196207836 12.6409038858861 1.22722666477785
84 24 6 0 12.5235196207836 11.7109038858861 1.22722666477785
85 25 6 0 3.06681116038933 4.94079810841009 11.5219587413594
86 25 7 0 4.02681116038933 4.94079810841009 11.5219587413594
87 25 6 0 4.26681116038933 4.01079810841009 11.5219587413594
88 26 6 0 13.8665147339646 1.78686829208396 6.11543278908357
89 26 7 0 14.8265147339646 1.78686829208396 6.11543278908357
90 26 6 0 15.0665147339646 0.856868292083964 6.11543278908357
91 27 6 0 5.72769271602854 3.24095678905956 3.45149086089805
92 27 7 0 6.68769271602854 3.24095678905956 3.45149086089805
93 27 6 0 6.92769271602854 2.31095678905956 3.45149086089805
94 28 6 0 5.45887533735484 7.30975185911171 7.85409965319559
95 28 7 0 6.41887533735484 7.30975185911171 7.85409965319559
96 28 6 0 6.65887533735484 6.37975185911171 7.85409965319559
97 29 6 0 13.1999280983303 1.86834212666377 12.8728766762652
98 29 7 0 14.1599280983303 1.86834212666377 12.8728766762652
99 29 6 0 14.3999280983303 0.938342126663774 12.8728766762652
100 30 6 0 8.32040248249657 3.47201496869326 1.06962637044489
101 30 7 0 9.28040248249657 3.47201496869326 1.06962637044489
102 30 6 0 9.52040248249657 2.54201496869326 1.06962637044489
103 31 6 0 -0.551055414397269 1.82955433189869 8.54048470035195
104 31 7 0 0.408944585602731 1.82955433189869 8.54048470035195
105 31 6 0 0.64894458560273 0.899554331898689 8.54048470035195
106 32 6 0 1.63751958796754 11.8879912890866 3.7350039021112
107 32 7 0 2.59751958796755 11.8879912890866 3.7350039021112
108 32 6 0 2.83751958796755 10.9579912890866 3.7350039021112
109 33 6 0 0.410176414735615 9.07383036957122 4.2018680088222
110 33 7 0 1.37017641473562 9.07383036957122 4.2018680088222
111 33 6 0 1.61017641473562 8.14383036957122 4.2018680088222
112 34 6 0 10.9452393504046 6.41670083668083 1.72039745142683
113 34 7 0 11.9052393504046 6.41670083668083 1.72039745142683
114 34 6 0 12.1452393504046 5.48670083668083 1.72039745142683
115 35 6 0 2.70125491239131 5.1447561666742 6.69152315938845
116 35 7 0 3.66125491239131 5.1447561666742 6.69152315938845
117 35 6 0 3.90125491239131 4.2147561666742 6.69152315938845
118 36 6 0 11.1489527758397 10.3731257798523 2.60369357652962
119 36 7 0 12.1089527758397 10.3731257798523 2.60369357652962
120 36 6 0 12.3489527758397 9.44312577985227 2.60369357652962
121 37 6 0 12.6891235685628 2.22833135555498 5.5274718767032
122 37 7 0 13.6491235685628 2.22833135555498 5.5274718767032
123 37 6 0 13.8891235685628 1.29833135555498 5.5274718767032
124 38 6 0 -0.0760408393386751 4.89776910905726 13.4567466925364
125 38 7 0 0.883959160661325 4.89776910905726 13.4567466925364
126 38 6 0 1.12395916066132 3.96776910905726 13.4567466925364
127 39 6 0 7.0458845926635 3.836313243201 12.5252763438039
128 39 7 0 8.0058845926635 3.836313243201 12.5252763438039
129 39 6 0 8.2458845926635 2.906313243201 12.5252763438039
130 40 6 0 5.26124421900138 1.45613509387709 14.8446531104855
131 40 7 0 6.22124421900138 1.45613509387709 14.8446531104855
132 40 6 0 6.46124421900138 0.526135093877092 14.8446531104855
133 41 6 0 2.88028970986605 9.03877923422493 0.702909330138937
134 41 7 0 3.84028970986605 9.03877923422493 0.702909330138937
135 41 6 0 4.08028970986605 8.10877923422493 0.702909330138937
136 42 6 0 9.47146923325024 8.30068590858951 0.157178461086005
137 42 7 0 10.4314692332502 8.30068590858951 0.157178461086005
138 42 6 0 10.6714692332502 7.37068590858951 0.157178461086005
139 43 6 0 1.47181896653026 13.205716978237 4.18099115020595
140 43 7 0 2.43181896653026 13.205716978237 4.18099115020595
141 43 6 0 2.67181896653026 12.275716978237 4.18099115020595
142 44 6 0 10.6503235960566 11.9443735996634 0.826044632121921
143 44 7 0 11.6103235960566 11.9443735996634 0.826044632121921
144 44 6 0 11.8503235960566 11.0143735996634 0.826044632121921
145 45 6 0 -0.388166607152671 6.25536714139394 2.79538761125877
146 45 7 0 0.571833392847329 6.25536714139394 2.79538761125877
147 45 6 0 0.811833392847329 5.32536714139394 2.79538761125877
148 46 6 0 8.2010020727478 3.58947954996489 13.1102560542058
149 46 7 0 9.1610020727478 3.58947954996489 13.1102560542058
150 46 6 0 9.4010020727478 2.65947954996489 13.1102560542058
151 47 6 0 1.43890844003297 1.71248724492267 14.6999577723909
152 47 7 0 2.39890844003297 1.71248724492267 14.6999577723909
153 47 6 0 2.63890844003297 0.782487244922668 14.6999577723909
154 48 6 0 1.05702753106132 13.1792807315383 12.9762504191604
155 48 7 0 2.01702753106132 13.1792807315383 12.9762504191604
156 48 6 0 2.25702753106132 12.2492807315383 12.9762504191604
157 49 6 0 13.7763713258039 10.0878743773233 5.8455341134686
158 49 7 0 14.7363713258039 10.0878743773233 5.8455341134686
159 49 6 0 14.9763713258039 9.15787437732332 5.8455341134686
160 50 6 0 5.48536027941853 12.563399231704 13.5453047265764
161 50 7 0 6.44536027941853 12.563399231704 13.5453047265764
162 50 6 0 6.68536027941853 11.633399231704 13.5453047265764
163 51 6 0 3.95453616438434 5.60398652142845 14.1076230467297
164 51 7 0 4.91453616438434 5.60398652142845 14.1076230467297
165 51 6 0 5.15453616438434 4.67398652142845 14.1076230467297
166 52 6 0 13.0907935572043 9.66835004784167 7.6246070174966
167 52 7 0 14.0507935572043 9.66835004784167 7.6246070174966
168 52 6 0 14.2907935572043 8.73835004784167 7.6246070174966
169 53 6 0 11.1742927569151 6.42341393087059 11.9734157435596
170 53 7 0 12.1342927569151 6.42341393087059 11.9734157435596
171 53 6 0 12.3742927569151 5.49341393087059 11.9734157435596
172 54 6 0 7.33100957513787 14.5341507652216 2.63109496096149
173 54 7 0 8.29100957513787 14.5341507652216 2.63109496096149
174 54 6 0 8.53100957513787 13.6041507652216 2.63109496096149
175 55 6 0 6.79632126630284 0.583781997384504 14.3590470298659
176 55 7 0 7.75632126630284 0.583781997384504 14.3590470298659
177 55 6 0 7.99632126630284 -0.346218002615497 14.3590470298659
178 56 6 0 0.456417757524177 14.8534447715525 4.62309599854052
179 56 7 0 1.41641775752418 14.8534447715525 4.62309599854052
180 56 6 0 1.65641775752418 13.9234447715525 4.62309599854052
181 57 6 0 4.79109567750245 5.2185359100718 1.53866996406578
182 57 7 0 5.75109567750245 5.2185359100718 1.53866996406578
183 57 6 0 5.99109567750245 4.28853591007181 1.53866996406578
184 58 6 0 6.71801417062059 2.79294746968895 0.679156259866431
185 58 7 0 7.67801417062059 2.79294746968895 0.679156259866431
186 58 6 0 7.91801417062059 1.86294746968895 0.679156259866431
187 59 6 0 7.68035751345567 12.1632375281211 10.0550888059661
188 59 7 0 8.64035751345567 12.1632375281211 10.0550888059661
189 59 6 0 8.88035751345567 11.2332375281211 10.0550888059661
190 60 6 0 4.21282224051654 1.70568238984793 5.56746287969872
191 60 7 0 5.17282224051654 1.70568238984793 5.56746287969872
192 60 6 0 5.41282224051654 0.775682389847934 5.56746287969872
193 61 6 0 7.17469585753977 14.4533662548661 13.6656143667642
194 61 7 0 8.13469585753977 14.4533662548661 13.6656143667642
195 61 6 0 8.37469585753977 13.5233662548661 13.6656143667642
196 62 6 0 7.65111230939627 9.55554087687284 3.56821395107545
197 62 7 0 8.61111230939627 9.55554087687284 3.56821395107545
198 62 6 0 8.85111230939627 8.62554087687284 3.56821395107545
199 63 6 0 6.8180197679624 2.71966707817279 12.9009136778768
200 63 7 0 7.7780197679624 2.71966707817279 12.9009136778768
201 63 6 0 8.0180197679624 1.78966707817279 12.9009136778768
202 64 6 0 1.92676522579975 9.02586022083648 2.41561951115727
203 64 7 0 2.88676522579975 9.02586022083648 2.41561951115727
204 64 6 0 3.12676522579975 8.09586022083648 2.41561951115727
205 65 6 0 0.522340664612129 11.4075335130934 9.19872465077788
206 65 7 0 1.48234066461213 11.4075335130934 9.19872465077788
207 65 6 0 1.72234066461213 10.4775335130934 9.19872465077788
208 66 6 0 3.32270235216245 7.79754207510501 13.8328444969375
209 66 7 0 4.28270235216245 7.79754207510501 13.8328444969375
210 66 6 0 4.52270235216245 6.86754207510501 13.8328444969375
211 67 6 0 11.0645132178627 0.99428723141551 8.87961559114046
212 67 7 0 12.0245132178627 0.99428723141551 8.87961559114046
213 67 6 0 12.2645132178627 0.0642872314155101 8.87961559114046
214 68 6 0 4.70400110280141 7.6838542816136 8.75896690296941
215 68 7 0 5.66400110280141 7.6838542816136 8.75896690296941
216 68 6 0 5.90400110280141 6.7538542816136 8.75896690296941
217 69 6 0 8.18234558726661 9.15212835342623 0.649766136193648
218 69 7 0 9.14234558726661 9.15212835342623 0.649766136193648
219 69 6 0 9.38234558726661 8.22212835342623 0.649766136193648
220 70 6 0 -0.534065349055454 10.8806492380705 3.76710164244287
221 70 7 0 0.425934650944546 10.8806492380705 3.76710164244287
222 70 6 0 0.665934650944546 9.95064923807047 3.76710164244287
223 71 6 0 1.95837551655248 4.14564295130782 5.38276857929304
224 71 7 0 2.91837551655248 4.14564295130782 5.38276857929304
225 71 6 0 3.15837551655248 3.21564295130782 5.38276857929304
226 72 6 0 3.89665512062609 4.16999345220625 12.3181503941305
227 72 7 0 4.85665512062609 4.16999345220625 12.3181503941305
228 72 6 0 5.09665512062609 3.23999345220625 12.3181503941305
229 73 6 0 1.6785295125749 6.46113481413573 2.92457870906219
230 73 7 0 2.6385295125749 6.46113481413573 2.92457870906219
231 73 6 0 2.8785295125749 5.53113481413573 2.92457870906219
232 74 6 0 6.80790519967675 14.5596031860355 12.487208788516
233 74 7 0 7.76790519967675 14.5596031860355 12.487208788516
234 74 6 0 8.00790519967675 13.6296031860355 12.487208788516
235 75 6 0 1.97871911848895 1.55075757805258 10.2397404459771
236 75 7 0 2.93871911848895 1.55075757805258 10.2397404459771
237 75 6 0 3.17871911848895 0.62075757805258 10.2397404459771
238 76 6 0 2.62458076162264 6.90591051051393 3.46500919782557
239 76 7 0 3.58458076162264 6.90591051051393 3.46500919782557
240 76 6 0 3.82458076162264 5.97591051051393 3.46500919782557
241 77 6 0 4.52674347485416 12.8795210648701 8.99623236036859
242 77 7 0 5.48674347485416 12.8795210648701 8.99623236036859
243 77 6 0 5.72674347485416 11.9495210648701 8.99623236036859
244 78 6 0 10.4128946356662 5.6369996214658 7.06234391313046
245 78 7 0 11.3728946356662 5.6369996214658 7.06234391313046
246 78 6 0 11.6128946356662 4.7069996214658 7.06234391313046
247 79 6 0 11.3938039603829 10.9668374950439 2.35656936303712
248 79 7 0 12.3538039603829 10.9668374950439 2.35656936303712
249 79 6 0 12.5938039603829 10.0368374950439 2.35656936303712
250 80 6 0 8.03176304136403 1.62652002921328 3.42278080643155
251 80 7 0 8.99176304136403 1.62652002921328 3.42278080643155
252 80 6 0 9.23176304136403 0.696520029213279 3.42278080643155
253 81 6 0 5.8623765064124 10.3679751632176 0.770914913155138
254 81 7 0 6.8223765064124 10.3679751632176 0.770914913155138
255 81 6 0 7.0623765064124 9.43797516321763 0.770914913155138
256 82 6 0 10.9783164846897 14.5848477915302 5.52591950632632
257 82 7 0 11.9383164846897 14.5848477915302 5.52591950632632
258 82 6 0 12.1783164846897 13.6548477915302 5.52591950632632
259 83 6 0 12.0038067984581 1.43078224308789 1.0826278582681
260 83 7 0 12.9638067984581 1.43078224308789 1.0826278582681
261 83 6 0 13.2038067984581 0.500782243087888 1.0826278582681
262 84 6 0 11.2441597336158 6.54917086515576 11.0003197810147
263 84 7 0 12.2041597336158 6.54917086515576 11.0003197810147
264 84 6 0 12.4441597336158 5.61917086515576 11.0003197810147
265 85 6 0 0.0462682549562305 13.5848422387522 9.37774107442237
266 85 7 0 1.00626825495623 13.5848422387522 9.37774107442237
267 85 6 0 1.24626825495623 12.6548422387522 9.37774107442237
268 86 6 0 0.871276621911675 3.71719339321367 0.323176014935598
269 86 7 0 1.83127662191167 3.71719339321367 0.323176014935598
270 86 6 0 2.07127662191167 2.78719339321367 0.323176014935598
271 87 6 0 8.1340648680646 10.692968664635 5.12654054677114
272 87 7 0 9.0940648680646 10.692968664635 5.12654054677114
273 87 6 0 9.3340648680646 9.76296866463497 5.12654054677114
274 88 6 0 9.39518112150952 1.22553736710921 10.2759139810223
275 88 7 0 10.3551811215095 1.22553736710921 10.2759139810223
276 88 6 0 10.5951811215095 0.295537367109209 10.2759139810223
277 89 6 0 3.93577783877961 6.14730244194157 11.6906489257235
278 89 7 0 4.89577783877961 6.14730244194157 11.6906489257235
279 89 6 0 5.13577783877961 5.21730244194157 11.6906489257235
280 90 6 0 8.67950941829011 4.68353384564631 1.30748822470196
281 90 7 0 9.63950941829011 4.68353384564631 1.30748822470196
282 90 6 0 9.87950941829011 3.75353384564631 1.30748822470196
283 91 6 0 8.51906116280705 5.42273735086434 8.01207007141784
284 91 7 0 9.47906116280705 5.42273735086434 8.01207007141784
285 91 6 0 9.71906116280705 4.49273735086434 8.01207007141784
286 92 6 0 5.82751050984487 12.1904801872466 6.49467117735185
287 92 7 0 6.78751050984487 12.1904801872466 6.49467117735185
288 92 6 0 7.02751050984487 11.2604801872466 6.49467117735185
289 93 6 0 0.832209678338841 8.31148673471995 14.1945539787412
290 93 7 0 1.79220967833884 8.31148673471995 14.1945539787412
291 93 6 0 2.03220967833884 7.38148673471995 14.1945539787412
292 94 6 0 5.17292191900313 0.648291568914428 13.9487253385596
293 94 7 0 6.13292191900313 0.648291568914428 13.9487253385596
294 94 6 0 6.37292191900313 -0.281708431085572 13.9487253385596
295 95 6 0 10.7904853897355 5.31926473643631 12.4901411798783
296 95 7 0 11.7504853897355 5.31926473643631 12.4901411798783
297 95 6 0 11.9904853897356 4.38926473643631 12.4901411798783
298 96 6 0 9.85730637607165 11.7761891793367 13.4257139009424
299 96 7 0 10.8173063760716 11.7761891793367 13.4257139009424
300 96 6 0 11.0573063760716 10.8461891793367 13.4257139009424
301 97 6 0 1.80726450213231 12.0315732485056 1.25563039910048
302 97 7 0 2.76726450213231 12.0315732485056 1.25563039910048
303 97 6 0 3.00726450213231 11.1015732485056 1.25563039910048
304 98 6 0 11.6489640511293 4.33974426513538 6.29027432994917
305 98 7 0 12.6089640511293 4.33974426513538 6.29027432994917
306 98 6 0 12.8489640511293 3.40974426513538 6.29027432994917
307 99 6 0 12.2509655907936 15.1835090834089 3.41175860026851
308 99 7 0 13.2109655907936 15.1835090834089 3.41175860026851
309 99 6 0 13.4509655907936 14.2535090834089 3.41175860026851
310 100 6 0 5.01710884898901 4.74140835501254 9.71612096764147
311 100 7 0 5.97710884898901 4.74140835501254 9.71612096764147
312 100 6 0 6.21710884898901 3.81140835501254 9.71612096764147
313 101 6 0 11.3217514792643 12.5216067726165 14.40658484702
314 101 7 0 12.2817514792643 12.5216067726165 14.40658484702
315 101 6 0 12.5217514792643 11.5916067726165 14.40658484702
316 102 6 0 13.0949339973461 13.3962230947241 7.74555784882978
317 102 7 0 14.0549339973461 13.3962230947241 7.74555784882978
318 102 6 0 14.2949339973461 12.4662230947241 7.74555784882978
319 103 6 0 10.4256841416657 7.44872583582997 10.7118435495067
320 103 7 0 11.3856841416657 7.44872583582997 10.7118435495067
321 103 6 0 11.6256841416657 6.51872583582997 10.7118435495067
322 104 6 0 7.15841165671125 10.1896978034079 0.267566054826602
323 104 7 0 8.11841165671125 10.1896978034079 0.267566054826602
324 104 6 0 8.35841165671125 9.25969780340791 0.267566054826602
325 105 6 0 7.19985503747128 9.41487728309818 11.2445375171956
326 105 7 0 8.15985503747128 9.41487728309818 11.2445375171956
327 105 6 0 8.39985503747128 8.48487728309818 11.2445375171956
328 106 6 0 4.33117445485666 0.867222150964662 3.83748270920478
329 106 7 0 5.29117445485666 0.867222150964662 3.83748270920478
330 106 6 0 5.53117445485666 -0.0627778490353376 3.83748270920478
331 107 6 0 12.2628443401493 4.32577118900605 0.119707686826587
332 107 7 0 13.2228443401493 4.32577118900605 0.119707686826587
333 107 6 0 13.4628443401493 3.39577118900605 0.119707686826587
334 108 6 0 7.36713383157738 11.5412198919244 0.626803853083402
335 108 7 0 8.32713383157738 11.5412198919244 0.626803853083402
336 108 6 0 8.56713383157738 10.6112198919244 0.626803853083402
337 109 6 0 9.43016182442196 9.62071255239658 3.09987291460857
338 109 7 0 10.390161824422 9.62071255239658 3.09987291460857
339 109 6 0 10.630161824422 8.69071255239658 3.09987291460857
340 110 6 0 2.32168264498003 4.4602799896989 2.86159231443889
341 110 7 0 3.28168264498003 4.4602799896989 2.86159231443889
342 110 6 0 3.52168264498003 3.5302799896989 2.86159231443889
343 111 6 0 9.40186341220513 0.762562610153109 2.24918144987896
344 111 7 0 10.3618634122051 0.762562610153109 2.24918144987896
345 111 6 0 10.6018634122051 -0.167437389846891 2.24918144987896
346 112 6 0 7.34484136730433 5.49836967996322 14.583750567399
347 112 7 0 8.30484136730433 5.49836967996322 14.583750567399
348 112 6 0 8.54484136730433 4.56836967996322 14.583750567399
349 113 6 0 8.45407203116454 14.4170561890956 14.3582904094364
350 113 7 0 9.41407203116454 14.4170561890956 14.3582904094364
351 113 6 0 9.65407203116454 13.4870561890956 14.3582904094364
352 114 6 0 4.81182457457297 14.1019958366547 10.6089953065384
353 114 7 0 5.77182457457297 14.1019958366547 10.6089953065384
354 114 6 0 6.01182457457297 13.1719958366547 10.6089953065384
355 115 6 0 5.86765951870009 11.3448832712043 4.62232707068324
356 115 7 0 6.82765951870009 11.3448832712043 4.62232707068324
357 115 6 0 7.06765951870009 10.4148832712043 4.62232707068324
358 116 6 0 11.4230840680841 5.85559360025451 4.44808544008993
359 116 7 0 12.3830840680841 5.85559360025451 4.44808544008993
360 116 6 0 12.6230840680841 4.92559360025451 4.44808544008993
361 117 6 0 8.77910673312843 8.3866628892161 14.9297394964378
362 117 7 0 9.73910673312843 8.3866628892161 14.9297394964378
363 117 6 0 9.97910673312843 7.4566628892161 14.9297394964378
364 118 6 0 13.5793388464674 4.32695787440985 9.32195968343876
365 118 7 0 14.5393388464674 4.32695787440985 9.32195968343876
366 118 6 0 14.7793388464674 3.39695787440985 9.32195968343876
367 119 6 0 10.7888384086266 13.5167418284714 13.5640656016767
368 119 7 0 11.7488384086266 13.5167418284714 13.5640656016767
369 119 6 0 11.9888384086266 12.5867418284714 13.5640656016767
370 120 6 0 5.61256654953584 2.94371464796364 5.95879180706106
371 120 7 0 6.57256654953584 2.94371464796364 5.95879180706106
372 120 6 0 6.81256654953584 2.01371464796364 5.95879180706106
373 121 6 0 2.19119698318653 0.328151975236833 10.571788729867
374 121 7 0 3.15119698318653 0.328151975236833 10.571788729867
375 121 6 0 3.39119698318653 -0.601848024763167 10.571788729867
376 122 6 0 11.1342904697824 10.9577509497199 0.0580207316670567
377 122 7 0 12.0942904697824 10.9577509497199 0.0580207316670567
378 122 6 0 12.3342904697824 10.0277509497199 0.0580207316670567
379 123 6 0 3.5028647286538 12.2956445631012 14.0905903105158
380 123 7 0 4.4628647286538 12.2956445631012 14.0905903105158
381 123 6 0 4.7028647286538 11.3656445631012 14.0905903105158
382 124 6 0 13.2862946209218 4.83577043091878 12.2417345107533
383 124 7 0 14.2462946209218 4.83577043091878 12.2417345107533
384 124 6 0 14.4862946209218 3.90577043091878 12.2417345107533
385 125 6 0 9.22724542018957 5.55882772238925 13.9883931109216
386 125 7 0 10.1872454201896 5.55882772238925 13.9883931109216
387 125 6 0 10.4272454201896 4.62882772238925 13.9883931109216
388 126 6 0 6.3422202870436 14.1012977288943 14.0800843038596
389 126 7 0 7.3022202870436 14.1012977288943 14.0800843038596
390 126 6 0 7.5422202870436 13.1712977288943 14.0800843038596
391 127 6 0 13.3507743668463 1.36516569456086 10.4785401339177
392 127 7 0 14.3107743668463 1.36516569456086 10.4785401339177
393 127 6 0 14.5507743668463 0.435165694560856 10.4785401339177
394 128 6 0 10.2338291953504 1.24240032088943 14.5068539259955
395 128 7 0 11.1938291953504 1.24240032088943 14.5068539259955
396 128 6 0 11.4338291953504 0.312400320889428 14.5068539259955
397 129 6 0 13.3222455151565 0.930292305247858 0.544193533714861
398 129 7 0 14.2822455151565 0.930292305247858 0.544193533714861
399 129 6 0 14.5222455151565 0.000292305247858116 0.544193533714861
400 130 6 0 4.60438959809952 5.26499419048428 13.5642956290394
401 130 7 0 5.56438959809952 5.26499419048428 13.5642956290394
402 130 6 0 5.80438959809952 4.33499419048429 13.5642956290394
403 131 6 0 10.2389010186028 8.75752270611934 5.44394068652764
404 131 7 0 11.1989010186028 8.75752270611934 5.44394068652764
405 131 6 0 11.4389010186028 7.82752270611934 5.44394068652764
406 132 6 0 14.1877453091741 2.46991699253209 4.0511284803506
407 132 7 0 15.1477453091741 2.46991699253209 4.0511284803506
408 132 6 0 15.3877453091741 1.53991699253209 4.0511284803506
409 133 6 0 3.17502188307233 12.6715435033571 7.31453032116406
410 133 7 0 4.13502188307233 12.6715435033571 7.31453032116406
411 133 6 0 4.37502188307233 11.7415435033571 7.31453032116406
412 134 6 0 14.2331774735078 0.526112156631425 9.28626691689715
413 134 7 0 15.1931774735078 0.526112156631425 9.28626691689715
414 134 6 0 15.4331774735078 -0.403887843368575 9.28626691689715
415 135 6 0 8.04363246585242 5.75489760650322 12.0509029284585
416 135 7 0 9.00363246585242 5.75489760650322 12.0509029284585
417 135 6 0 9.24363246585242 4.82489760650322 12.0509029284585
418 136 6 0 5.16962990557775 6.43263598362915 1.0654062742833
419 136 7 0 6.12962990557775 6.43263598362915 1.0654062742833
420 136 6 0 6.36962990557775 5.50263598362915 1.0654062742833
421 137 6 0 7.32589028237388 6.72062121721916 2.40010279230773
422 137 7 0 8.28589028237388 6.72062121721916 2.40010279230773
423 137 6 0 8.52589028237388 5.79062121721916 2.40010279230773
424 138 6 0 3.8475767690409 8.83282323758118 12.9502821795177
425 138 7 0 4.8075767690409 8.83282323758118 12.9502821795177
426 138 6 0 5.0475767690409 7.90282323758118 12.9502821795177
427 139 6 0 5.41754733349197 12.2431059069373 5.13885770458728
428 139 7 0 6.37754733349197 12.2431059069373 5.13885770458728
429 139 6 0 6.61754733349197 11.3131059069373 5.13885770458728
430 140 6 0 1.38580380633473 8.31978102954105 14.203521462623
431 140 7 0 2.34580380633473 8.31978102954105 14.203521462623
432 140 6 0 2.58580380633473 7.38978102954105 14.203521462623
433 141 6 0 4.40182670063339 13.2136292782985 1.27381888101809
434 141 7 0 5.36182670063339 13.2136292782985 1.27381888101809
435 141 6 0 5.60182670063339 12.2836292782985 1.27381888101809
436 142 6 0 6.6097928867396 3.62208106013946 3.65791149437428
437 142 7 0 7.5697928867396 3.62208106013946 3.65791149437428
438 142 6 0 7.8097928867396 2.69208106013946 3.65791149437428
439 143 6 0 4.7498836337775 12.7581885845307 0.997810472035781
440 143 7 0 5.7098836337775 12.7581885845307 0.997810472035781
441 143 6 0 5.9498836337775 11.8281885845307 0.997810472035781
442 144 6 0 10.9372803456802 3.47644610720687 11.0566365031991
443 144 7 0 11.8972803456802 3.47644610720687 11.0566365031991
444 144 6 0 12.1372803456802 2.54644610720687 11.0566365031991
445 145 6 0 10.1148925353494 8.98786472546868 8.59126177383587
446 145 7 0 11.0748925353494 8.98786472546868 8.59126177383587
447 145 6 0 11.3148925353494 8.05786472546868 8.59126177383587
448 146 6 0 9.2393379709404 13.9579418748058 1.74463041708805
449 146 7 0 10.1993379709404 13.9579418748058 1.74463041708805
450 146 6 0 10.4393379709404 13.0279418748058 1.74463041708805
451 147 6 0 3.05157338429242 11.7497195342463 10.5489779112395
452 147 7 0 4.01157338429242 11.7497195342463 10.5489779112395
453 147 6 0 4.25157338429242 10.8197195342463 10.5489779112395
454 148 6 0 6.44405253508128 8.74112648813985 8.65365965059027
455 148 7 0 7.40405253508128 8.74112648813985 8.65365965059027
456 148 6 0 7.64405253508128 7.81112648813985 8.65365965059027
457 149 6 0 4.86884015888907 15.0173924017604 11.1006956524216
458 149 7 0 5.82884015888907 15.0173924017604 11.1006956524216
459 149 6 0 6.06884015888907 14.0873924017604 11.1006956524216
460 150 6 0 10.8039718614612 5.50373315153643 7.26766051724553
461 150 7 0 11.7639718614612 5.50373315153643 7.26766051724553
462 150 6 0 12.0039718614612 4.57373315153643 7.26766051724553
463 151 6 0 9.81694003843702 0.384488586978987 0.873291845200583
464 151 7 0 10.776940038437 0.384488586978987 0.873291845200583
465 151 6 0 11.016940038437 -0.545511413021013 0.873291845200583
466 152 6 0 8.60173974928446 5.4049542876333 0.0356237415689975
467 152 7 0 9.56173974928446 5.4049542876333 0.0356237415689975
468 152 6 0 9.80173974928446 4.4749542876333 0.0356237415689975
469 153 6 0 2.57706437070854 12.2325848233327 7.37121950369328
470 153 7 0 3.53706437070854 12.2325848233327 7.37121950369328
471 153 6 0 3.77706437070854 11.3025848233327 7.37121950369328
472 154 6 0 4.58632361071184 13.9823620188423 4.68338110833429
473 154 7 0 5.54632361071184 13.9823620188423 4.68338110833429
474 154 6 0 5.78632361071184 13.0523620188423 4.68338110833429