LAMMPS (29 Sep 2021 - Update 1)
# Test LAMMPS input file for single DeFDe

# Initialize simulation

clear

units real
atom_style full
boundary p p p
dielectric 1
special_bonds dreiding

bond_style harmonic
angle_style harmonic
dihedral_style harmonic
improper_style umbrella
pair_style hybrid/overlay hbond/dreiding/lj 4 9.0 11.0 90 lj/cut 8.50000

# Read data file
read_data frag5.dat
Reading data file ...
  triclinic box = (0.0000000 0.0000000 0.0000000) to (15.000000 15.000000 15.000000) with tilt (0.0000000 0.0000000 0.0000000)
  2 by 4 by 4 MPI processor grid
  reading atoms ...
  1515 atoms
  scanning bonds ...
  4 = max bonds/atom
  scanning angles ...
  6 = max angles/atom
  scanning dihedrals ...
  9 = max dihedrals/atom
  scanning impropers ...
  1 = max impropers/atom
  reading bonds ...
  1014 bonds
  reading angles ...
  524 angles
  reading dihedrals ...
  28 dihedrals
  reading impropers ...
  2 impropers
Finding 1-2 1-3 1-4 neighbors ...
  special bond factors lj:    0        0        1       
  special bond factors coul:  0        0        1       
     4 = max # of 1-2 neighbors
     8 = max # of 1-3 neighbors
    12 = max # of special neighbors
  special bonds CPU = 0.002 seconds
  read_data CPU = 0.017 seconds

# Dreiding potential information

bond_coeff 1 350 1.53
bond_coeff 2 350 1.09
bond_coeff 3 700 1.275
bond_coeff 4 350 0.935
bond_coeff 5 700 1.22
bond_coeff 6 350 1.43
bond_coeff 7 350 0.98

angle_coeff 1 50 109.471
angle_coeff 2 50 120
angle_coeff 3 50 120
angle_coeff 4 50 104.51

dihedral_coeff 1 0.111111111111111 -1 3
dihedral_coeff 2 5.625 -1 2
dihedral_coeff 3 0.0833333333333333 -1 6

improper_coeff 1 40 0

pair_coeff 1 1 lj/cut 0.0951 3.8983
pair_coeff 1 2 lj/cut 0.0857947550844456 3.77835472527395
pair_coeff 1 3 lj/cut 0.0951 3.8983
pair_coeff 1 4 lj/cut 0.0953995283007206 3.64309650983885
pair_coeff 1 5 lj/cut 0.0380199947396104 3.52917391183829
pair_coeff 1 6 lj/cut 0.00308382878902186 3.52806914614779
pair_coeff 1 7 lj/cut 0.0953995283007206 3.64309650983885
pair_coeff 2 2 lj/cut 0.0774 3.6621
pair_coeff 2 3 lj/cut 0.0857947550844456 3.77835472527395
pair_coeff 2 4 lj/cut 0.0860649754545948 3.53100349192691
pair_coeff 2 5 lj/cut 0.0342998542270955 3.42058613398347
pair_coeff 2 6 lj/cut 0.00278208554864871 3.41951536039831
pair_coeff 2 7 lj/cut 0.0860649754545948 3.53100349192691
pair_coeff 3 3 lj/cut 0.0951 3.8983
pair_coeff 3 4 lj/cut 0.0953995283007206 3.64309650983885
pair_coeff 3 5 lj/cut 0.0380199947396104 3.52917391183829
pair_coeff 3 6 lj/cut 0.00308382878902186 3.52806914614779
pair_coeff 3 7 lj/cut 0.0953995283007206 3.64309650983885
pair_coeff 4 4 lj/cut 0.0957 3.4046
pair_coeff 4 5 lj/cut 0.0381397430510485 3.29813538230316
pair_coeff 4 6 lj/cut 0.0030935416596516 3.29710294046152
pair_coeff 4 7 lj/cut 0.0957 3.4046
pair_coeff 5 5 lj/cut 0.0152 3.195
pair_coeff 5 6 lj/cut 0.0012328828005938 3.19399984345648
pair_coeff 5 7 lj/cut 0.0381397430510485 3.29813538230316
pair_coeff 6 6 lj/cut 1e-04 3.193
pair_coeff 6 7 lj/cut 0.0030935416596516 3.29710294046152
pair_coeff 7 7 lj/cut 0.0957 3.4046
pair_coeff 2 2 hbond/dreiding/lj 6 j 9.50 2.75 4 9.0 11.0 90
pair_coeff 2 4 hbond/dreiding/lj 6 i 9.50 2.75 4 9.0 11.0 90
pair_coeff 2 7 hbond/dreiding/lj 6 i 9.50 2.75 4 9.0 11.0 90
pair_coeff 2 7 hbond/dreiding/lj 6 j 9.50 2.75 4 9.0 11.0 90
pair_coeff 4 7 hbond/dreiding/lj 6 j 9.50 2.75 4 9.0 11.0 90
pair_coeff 7 7 hbond/dreiding/lj 6 j 9.50 2.75 4 9.0 11.0 90

neighbor 2 bin
neigh_modify every 2 one 10000

# Gemoetric relaxation
fix 1 all box/relax iso 1.0 vmax 0.001
minimize 1.0e-4 1.0e-6 10000 10000
WARNING: Using 'neigh_modify every 1 delay 0 check yes' setting during minimization (../min.cpp:188)
Neighbor list info ...
  update every 1 steps, delay 0 steps, check yes
  max neighbors/atom: 10000, page size: 100000
  master list distance cutoff = 13
  ghost atom cutoff = 13
  binsize = 6.5, bins = 3 3 3
  3 neighbor lists, perpetual/occasional/extra = 3 0 0
  (1) pair hbond/dreiding/lj, perpetual, skip from (3)
      attributes: full, newton on
      pair build: skip
      stencil: none
      bin: none
  (2) pair lj/cut, perpetual, half/full from (3)
      attributes: half, newton on
      pair build: halffull/newton
      stencil: none
      bin: none
  (3) neighbor class addition, perpetual
      attributes: full, newton on
      pair build: full/bin
      stencil: full/bin/3d
      bin: standard
Per MPI rank memory allocation (min/avg/max) = 14.58 | 14.94 | 15.54 Mbytes
Step Temp E_pair E_mol TotEng Press Volume 
       0            0 6.8767129e+16    269.54809 6.8767129e+16 5.588448e+18         3375 
    5195            0   -1125.9955    32.894055   -1093.1014    102.01995    36812.755 
Loop time of 4.5895 on 32 procs for 5195 steps with 1515 atoms

100.0% CPU use with 32 MPI tasks x no OpenMP threads

Minimization stats:
  Stopping criterion = energy tolerance
  Energy initial, next-to-last, final = 
    6.87671288963416e+16  -1092.52492714569  -1092.61375569061
  Force two-norm initial, final = 1.1384313e+19 103.72466
  Force max component initial, final = 5.7098333e+18 73.365930
  Final line search alpha, max atom move = 1.4017941e-05 0.0010284392
  Iterations, force evaluations = 5195 5197

MPI task timing breakdown:
Section |  min time  |  avg time  |  max time  |%varavg| %total
---------------------------------------------------------------
Pair    | 1.2536     | 2.5687     | 3.7056     |  38.1 | 55.97
Bond    | 0.0060448  | 0.010968   | 0.030601   |   3.8 |  0.24
Neigh   | 0.093113   | 0.093443   | 0.093705   |   0.0 |  2.04
Comm    | 0.44105    | 1.5769     | 2.8936     |  48.6 | 34.36
Output  | 0          | 0          | 0          |   0.0 |  0.00
Modify  | 0          | 0          | 0          |   0.0 |  0.00
Other   |            | 0.3395     |            |       |  7.40

Nlocal:        47.3438 ave          67 max          28 min
Histogram: 3 1 1 5 6 5 4 4 2 1
Nghost:        2021.59 ave        2082 max        1955 min
Histogram: 3 4 6 2 1 0 2 4 5 5
Neighs:        5247.38 ave        7516 max        2617 min
Histogram: 4 1 1 5 4 1 5 5 3 3

Total # of neighbors = 167916
Ave neighs/atom = 110.83564
Ave special neighs/atom = 2.0303630
Neighbor list builds = 93
Dangerous builds = 0

# MD simulation
velocity all create 300.0 12345 rot yes dist gaussian
timestep 1.0
fix 2 all nvt temp 300.0 300.0 1

# Compute interaction energy
group WAT molecule <> 2 501
1500 atoms in group WAT
group MOL molecule 1
15 atoms in group MOL

compute w WAT group/group MOL pair yes
fix 3 all ave/time 10 5 100 c_w file outa

# Outputs
thermo 100 # Output thermodynamic data every nth step
#dump mf1 all xyz 10000 mol_*.xyz

# Run
run 1000000
Neighbor list info ...
  update every 2 steps, delay 10 steps, check yes
  max neighbors/atom: 10000, page size: 100000
  master list distance cutoff = 13
  ghost atom cutoff = 13
  binsize = 6.5, bins = 6 6 6
  4 neighbor lists, perpetual/occasional/extra = 3 1 0
  (1) pair hbond/dreiding/lj, perpetual, skip from (4)
      attributes: full, newton on
      pair build: skip
      stencil: none
      bin: none
  (2) pair lj/cut, perpetual, half/full from (4)
      attributes: half, newton on
      pair build: halffull/newton
      stencil: none
      bin: none
  (3) compute group/group, occasional, copy from (2)
      attributes: half, newton on
      pair build: copy
      stencil: none
      bin: none
  (4) neighbor class addition, perpetual
      attributes: full, newton on
      pair build: full/bin
      stencil: full/bin/3d
      bin: standard
Per MPI rank memory allocation (min/avg/max) = 13.43 | 13.48 | 14.00 Mbytes
Step Temp E_pair E_mol TotEng Press Volume 
    5195          300   -1125.9955    32.894055    260.78251    1783.2067    36812.755 
    5200    329.31504   -1092.0672    250.46639    644.58035    50.985959    36812.755 
    5300    300.87534   -1132.2864    215.45505    441.00292   -774.13106    36812.755 
    5400    295.34936   -1168.5599    159.24728    323.58324   -854.07754    36812.755 
    5500    293.75078   -1194.8657     208.5684     339.3842   -304.99162    36812.755 
    5600     306.5021   -1190.8673    194.54604    386.90629    114.77633    36812.755 
    5700    302.17007   -1160.4855    204.11423    407.30609    391.75347    36812.755 
    5800    304.65561    -1154.351    190.87881    411.42226    458.09287    36812.755 
    5900    295.82975   -1136.3828     194.3999    393.08089   -43.374805    36812.755 
    6000    296.25522   -1136.5307    216.53158    416.98475    269.57836    36812.755 
    6100     308.0901   -1131.9339    206.15765    464.61782    668.72289    36812.755 
    6200    293.67373   -1129.7716    215.73245    411.29471    760.43533    36812.755 
    6300    302.23185   -1131.1423    211.99893     444.8128    712.87186    36812.755 
    6400    304.18241   -1145.3431    209.81993    437.23579    119.69662    36812.755 
    6500    300.85467   -1154.5482    210.08017    413.27295    263.86524    36812.755 
    6600    311.11313   -1122.2807    212.14072    493.89694    397.46156    36812.755 
    6700    306.31097   -1092.6765    227.70556    517.39405    107.94601    36812.755 
    6800    300.54945   -1117.4683     223.6559    462.55114   -51.123354    36812.755 
    6900    287.82445    -1160.777    231.63105    369.79039    -145.3666    36812.755 
    7000    293.96798   -1127.0014    216.40955    416.06984   0.63384211    36812.755 
    7100    296.96116   -1148.1283    230.20043    422.24194   -98.354291    36812.755 
    7200    297.28175    -1142.498    227.27209     426.3907   -291.75101    36812.755 
    7300    307.83608   -1142.6957    209.88615     456.4382    21.006024    36812.755 
    7400    313.34585   -1116.3724    234.36943    532.11001    636.84628    36812.755 
    7500    299.26604   -1137.4763    236.19556    449.29093   -28.360548    36812.755 
    7600     298.7294   -1142.0647    240.58463    446.66965   -195.39288    36812.755 
    7700    295.87983   -1113.0504    240.55338    462.79277    417.21331    36812.755 
    7800     291.3344   -1104.7297     230.6208    440.66763    223.77851    36812.755 
    7900    296.28694   -1114.2342    241.54739     464.4403    421.39279    36812.755 
    8000    299.89925   -1159.6428    241.48006     435.2665    742.81403    36812.755 
    8100    297.88087   -1152.6067    232.81919    424.53287    661.66628    36812.755 
    8200    309.00777   -1139.2677    246.97795    502.24581    510.22554    36812.755 
    8300    300.37482   -1115.3691    236.33438     476.5407    900.19022    36812.755 
    8400    303.06663    -1206.789    237.84223    398.77666    739.59847    36812.755 
    8500    297.80456   -1163.0092    234.23338    415.20022    499.24702    36812.755 
    8600    300.84364   -1158.9815    253.30816    452.01793    74.897903    36812.755 
    8700    300.22855     -1135.91    239.64201    458.64733    499.99129    36812.755 
    8800    297.50103   -1169.0823    229.30255    402.82645     397.2944    36812.755 
    8900    294.74478   -1143.4865    245.33932    432.02025    110.31375    36812.755 
    9000    305.36578   -1129.7287    252.02704    500.39777    468.40265    36812.755 
    9100    298.05199   -1152.7559     250.6559    442.99266    281.13363    36812.755 
    9200    304.38279   -1152.4147    251.70566    472.95416    740.24299    36812.755 
    9300    307.27343   -1125.2525    247.65054    509.10654    416.50357    36812.755 
    9400    305.41073   -1166.8246    266.52692    478.00462   -58.635248    36812.755 
    9500    295.19629   -1154.1943    260.94098    438.95176    353.32185    36812.755 
    9600    301.03091   -1126.6033    251.41004    483.34309    147.76007    36812.755 
    9700    299.01972   -1113.6086    251.89755    487.74894    9.3805867    36812.755 
    9800    295.12158   -1139.0112    241.95271    434.80943    534.32858    36812.755 
    9900    300.63225   -1142.6293    261.57673    475.68469    424.90188    36812.755 
   10000    297.74742   -1157.8821    265.30378     451.1398    136.27687    36812.755 
   10100    294.91424   -1178.7884    266.94709    419.09082    133.03218    36812.755 
   10200    290.81035   -1172.9281     241.2021    380.68556     261.8356    36812.755 
   10300    299.15476   -1189.0996    262.60761    423.57738    358.79421    36812.755 
   10400    302.92373   -1149.7888    253.76095    471.05074    673.96117    36812.755 
   10500    309.03314   -1132.6808    263.50988    525.47909    939.16548    36812.755 
   10600    296.67932   -1141.0257    287.36432    485.23649    125.13072    36812.755 
   10700        301.4   -1116.2487    255.67081    499.62418    210.78096    36812.755 
   10800    300.59569   -1134.6947    259.14328    481.02083    719.34588    36812.755 
   10900    302.31303   -1106.0694    276.17301    534.42612    279.66634    36812.755 
   11000    305.78286   -1096.8128    255.45897    538.62783    574.23902    36812.755 
   11100    290.68791   -1112.0842    273.38439    473.15919    550.75904    36812.755 
   11200    294.18304   -1114.8895    286.19965     498.9425   -78.098591    36812.755 
   11300     305.3278   -1125.6947    266.72496    518.95824    446.93251    36812.755 
   11400    307.81034   -1120.1742      284.233    553.19037    722.23776    36812.755 
   11500    304.65045   -1101.6615    274.99568    548.20534    276.01125    36812.755 
   11600    314.42293   -1100.6915    280.01769    598.30002    395.98438    36812.755 
   11700    293.92181   -1097.6573    282.34464    511.14066      365.707    36812.755 
   11800    305.76877   -1144.0421    274.02953    509.90556    128.19218    36812.755 
   11900     306.0051   -1134.4247     285.7775    532.33744    451.13065    36812.755 
   12000    289.41434   -1089.6571    265.77238    482.22671    318.71894    36812.755 
   12100    299.39781   -1178.8064    291.02412    463.38396    126.71623    36812.755 
   12200    304.78794   -1120.9631    280.65311    535.18159    313.91314    36812.755 
   12300    300.51315   -1136.2113    288.73204    508.72047    567.42148    36812.755 
   12400    299.83132   -1191.2218    266.50923    428.41012   -117.30614    36812.755 
   12500    289.51066    -1159.551    264.07526    411.07036    341.18271    36812.755 
   12600    302.02404   -1196.0629    285.30619    452.26156    243.87288    36812.755 
   12700    307.24858   -1205.5034    280.33694    461.42997    238.13745    36812.755 
   12800    301.70532   -1174.1922    283.58604    470.97376   -605.50571    36812.755 
   12900    302.18892   -1127.2705    290.18807    526.68004    -104.6943    36812.755 
   13000    297.89724   -1164.3065    284.32495    464.41275   -357.66859    36812.755 
   13100    302.59349   -1170.9357     304.2569    498.90941    557.76649    36812.755 
   13200     300.1848   -1146.9948    305.26521    512.98827    672.53124    36812.755 
   13300    294.38155     -1168.03    288.04629    448.54443    260.17439    36812.755 
   13400    296.98684   -1150.9644    279.51106    468.83241    433.82671    36812.755 
   13500    290.56429   -1172.7392    315.57725    454.13907    94.928012    36812.755 
   13600    305.58832   -1206.7763    288.65616    460.98361    209.87359    36812.755 
   13700    294.44596   -1168.4633      302.557     462.9126    77.932437    36812.755 
   13800    302.26382   -1140.3623    280.44644    504.18453   -27.189224    36812.755 
   13900    282.17605    -1164.848    286.14778     394.7452   -199.82368    36812.755 
   14000    296.61184   -1167.2169    305.30985     476.6863    143.07379    36812.755 
   14100    283.60435   -1204.7246     299.0031    374.16971    146.81667    36812.755 
   14200    296.10227   -1166.9613    301.17962    470.51198    2.8978409    36812.755 
   14300    299.83725   -1200.8265    301.70431    454.02724    375.38747    36812.755 
   14400    298.74994    -1220.345    294.74851    422.64594    161.80463    36812.755 
   14500    297.90545   -1188.7271    276.24109    431.94536    110.46053    36812.755 
   14600    296.04802   -1179.7766    305.32591    461.59814    17.542564    36812.755 
   14700    306.52342   -1199.9017     307.9987     491.4208    502.68433    36812.755 
   14800    296.77215   -1203.2994    293.25653    429.27394     404.4765    36812.755 
   14900    306.82081   -1212.4862    307.12284    479.30249    182.82386    36812.755 
   15000     306.2707    -1187.304    301.30795    496.18724    56.576298    36812.755 
   15100    297.44322   -1142.8156    294.66038    494.19015     -67.5535    36812.755 
   15200    308.95282   -1136.3469    308.03815    565.97877    73.477617    36812.755 
   15300    298.06189   -1161.7258    317.62009     501.0316    147.72195    36812.755 
   15400    305.69793   -1210.4006    291.12571     460.3235    657.57515    36812.755 
   15500    302.01626   -1175.2359    307.03645    494.78378    280.46592    36812.755 
   15600    303.64818   -1176.6267    318.25769      511.979    102.00955    36812.755 
   15700    295.42194   -1181.6066    287.49942    439.11617    296.09642    36812.755 
   15800    304.33749   -1216.7415    305.67872      462.396    562.62618    36812.755 
   15900    291.49712   -1187.5265    306.57041     434.5548   -37.524261    36812.755 
   16000     288.2091   -1199.0099    301.48131    403.14366    149.48842    36812.755 
   16100    302.84026   -1203.1807    319.98471    483.50586    389.75966    36812.755 
   16200    298.13984   -1241.0932    298.92706    403.32297   -21.003287    36812.755 
   16300    296.88593   -1185.2744    319.49822    474.05409     184.0772    36812.755 
   16400    296.91515   -1223.0705    312.15159    429.04326    61.709512    36812.755 
   16500    308.78948     -1186.95    312.09097    518.69137    109.46122    36812.755 
   16600    293.02499   -1205.4893     310.2137    427.13055     279.9783    36812.755 
   16700    308.26225   -1214.4784    326.59132     503.2839    455.30809    36812.755 
   16800    309.48462   -1169.4791    317.77266    544.98102    591.34927    36812.755 
   16900    293.55411   -1226.2777    319.27314    417.78946    382.32161    36812.755 
   17000    292.47881   -1235.4451    319.40951    403.90557    169.21092    36812.755 
   17100    299.59638   -1191.5471     309.4932    470.00854   -165.73257    36812.755 
   17200    301.91027   -1201.0384    327.72557    489.19207     139.9924    36812.755 
   17300    290.32454   -1221.0452    330.72518    419.89909     25.36574    36812.755 
   17400    307.30523   -1200.0681     306.1214     492.9053    86.848858    36812.755 
   17500    294.65459   -1216.9069      310.493    423.34652    386.22155    36812.755 
   17600      294.658   -1242.4946    316.13598    403.41717     378.3405    36812.755 
   17700    297.66304   -1248.8592    344.84517    439.32334     382.5488    36812.755 
   17800    295.63626   -1250.9504    330.01611    413.25632    375.83712    36812.755 
   17900     304.4234   -1268.5961    300.83201    406.08237    790.10619    36812.755 
   18000    301.73521   -1244.7621    323.11573    440.06846    1061.1097    36812.755 
   18100     304.9563   -1224.3199    321.08128    473.01279    591.46873    36812.755 
   18200     311.5148   -1237.4655    329.62257    498.00672    351.05866    36812.755 
   18300    300.69879   -1241.9299    339.08026     454.1879    211.11295    36812.755 
   18400    302.36073   -1235.7654    326.12764    454.89998     432.8263    36812.755 
   18500     297.7876    -1218.717    303.80004    428.98256   -272.03356    36812.755 
   18600    294.53958   -1247.2934    315.85621    397.80416   -253.51347    36812.755 
   18700    299.17879   -1265.4919     320.4861    405.17203   -208.98869    36812.755 
   18800    313.33339   -1250.9171    297.56097    460.70069    265.98365    36812.755 
   18900    305.78828    -1259.263    316.44717    437.19029    5.5920462    36812.755 
   19000    304.95048   -1244.1518    330.81834    462.89175    20.189705    36812.755 
   19100    292.13583   -1229.4788    310.97594    399.89042   -221.24523    36812.755 
   19200    295.18048   -1234.9135    346.30428    443.52444   -213.53721    36812.755 
   19300     294.5639   -1269.5005    307.89623    367.74677   -337.21508    36812.755 
   19400    300.20712   -1256.5678    319.69363    417.94445     257.3699    36812.755 
   19500    306.16545   -1291.4983    326.48198    416.69195    385.51471    36812.755 
   19600    304.06256   -1258.6338    336.25167    449.83594     726.2146    36812.755 
   19700    301.66704   -1271.2293    349.37919    439.55711    551.70162    36812.755 
   19800    302.11549   -1249.7087    339.05589    452.77819   -82.215103    36812.755 
   19900    301.28107   -1291.7601    313.92316    381.82836    288.00906    36812.755 
   20000    302.20664   -1309.2043    339.78772    394.42581    496.32366    36812.755 
   20100    308.86757   -1298.1234    331.26161    427.04103    372.60802    36812.755 
   20200    301.87909   -1283.7385    324.08848    402.71418    866.88318    36812.755 
   20300    298.28387   -1238.6364     338.1075    445.61025    626.36153    36812.755 
   20400    304.78231   -1297.9829    345.76341    423.24679    73.987387    36812.755 
   20500    290.68128    -1247.875    333.55785     397.5119    367.38684    36812.755 
   20600    298.96953   -1281.1173    319.96552    388.08167    324.17021    36812.755 
   20700    307.55131   -1257.5696     331.3793    461.77228    291.82305    36812.755 
   20800     297.8276   -1301.6476    329.81624    372.24865     304.8409    36812.755 
   20900    311.07466   -1206.6657    338.47643    535.67399    42.274423    36812.755 
   21000    307.61972   -1276.0459    334.60726    446.83264    312.03686    36812.755 
   21100    301.74302   -1257.7345    319.54691    423.56245     66.58717    36812.755 
   21200    304.37306   -1279.1565    327.28455    421.74733    15.898428    36812.755 
   21300    302.03459   -1257.5893    323.60264    429.07928   -87.415326    36812.755 
   21400    296.37916   -1247.0121    344.66454    435.19568   -286.26223    36812.755 
   21500    297.37806   -1298.3669    330.97834    374.66267    295.79041    36812.755 
   21600    287.87044   -1259.8971    351.76898    391.01579    385.47399    36812.755 
   21700    310.28313   -1275.8515    340.04299    464.48258    764.23091    36812.755 
   21800    304.28528   -1281.1739    333.88571      425.935    783.27667    36812.755 
   21900    293.07985   -1252.9156    332.11605    401.85413    511.45885    36812.755 
   22000    294.39962   -1256.1405    322.17468    394.64386    803.02981    36812.755 
   22100    290.82738   -1277.1448     339.6031    374.94671    571.04954    36812.755 
   22200    294.85827   -1288.0222    341.94974    384.60708    517.97846    36812.755 
   22300     300.6551   -1279.5962    321.16586       398.41    59.721908    36812.755 
   22400    318.77284   -1248.3721    323.88315    514.11581    739.39043    36812.755 
   22500    297.22125    -1296.894    329.54075    373.99028    445.12587    36812.755 
   22600    308.09058   -1273.4932     335.4167    452.31978    413.81915    36812.755 
   22700    299.56784   -1270.8165    331.17543     412.2925     720.7452    36812.755 
   22800    307.86658   -1249.9353    332.65258    472.10264    478.89968    36812.755 
   22900    309.68743   -1261.2999    328.05077    464.35365    60.150446    36812.755 
   23000     298.1251   -1246.3039    328.13436    427.25305    903.96218    36812.755 
   23100     299.6112   -1269.3924    333.53873    416.27561    1081.6064    36812.755 
   23200    294.02697   -1265.8568    336.98743    398.05859     52.66407    36812.755 
   23300    304.00506   -1258.5625    342.10589    455.50188     339.0406    36812.755 
   23400    292.07519    -1265.819    335.70219    388.00291    842.82539    36812.755 
   23500    305.86436   -1277.2792    342.33312    445.40339    246.74502    36812.755 
   23600    300.80344    -1331.426    327.96562    354.04946    836.62199    36812.755 
   23700    294.25965   -1310.6026    341.62184    358.99726    672.59302    36812.755 
   23800    303.43572   -1313.6258    327.59785    383.36118    762.79658    36812.755 
   23900    296.89932   -1315.5728    325.26019    349.57817    472.54497    36812.755 
   24000    308.21729   -1258.5098    344.09293    476.55122   -43.684538    36812.755 
   24100    286.64829   -1262.4118    351.55511     382.7717   -63.484714    36812.755 
   24200    294.37041   -1270.5238     365.8766    423.83071   -247.18554    36812.755 
   24300    312.17361   -1215.5488    328.31609    521.59006   -357.76247    36812.755 
   24400    298.24922   -1258.4753    327.88521    415.39271   -382.58213    36812.755 
   24500    302.80186   -1291.9955    337.00172    411.53478   -86.456725    36812.755 
   24600    302.71367   -1281.9728    334.59515    418.75293   -26.456826    36812.755 
   24700    304.59337    -1241.309    354.24614    487.55072    543.59633    36812.755 
   24800    299.33961   -1206.4919    342.52084    486.93252    465.07424    36812.755 
   24900    293.97871   -1251.2978    321.49945    396.91178    353.08931    36812.755 
   25000    293.41294   -1246.9626    363.20663    440.40086    521.36199    36812.755 
   25100    305.26354   -1194.7102    345.18483    528.11265    761.13267    36812.755 
   25200    309.06339   -1214.1255    342.72245    523.38352    401.21777    36812.755 
   25300    314.64281   -1237.6901    366.57994    548.85595    959.11829    36812.755 
   25400    305.28142    -1225.144    369.66456    522.23926    472.93453    36812.755 
   25500    298.43674    -1258.577    344.05985    432.31186    794.71227    36812.755 
   25600    286.92945   -1208.9913    342.74491    428.65077    744.05497    36812.755 
   25700    293.56156   -1241.9378    343.13312    426.02292   -70.498601    36812.755 
   25800    287.95732   -1244.4815    347.12802    402.18245    93.770662    36812.755 
   25900    302.09026   -1247.7217    350.79184    466.38729    636.46812    36812.755 
   26000    300.44407    -1274.899    351.89509    432.88405    830.80305    36812.755 
   26100    294.49254   -1271.9887    355.30313     412.3435      662.139    36812.755 
   26200    301.14179   -1275.4481    364.12556    447.71422    698.40589    36812.755 
   26300    288.05871   -1286.0463    356.86643    370.81364    754.11724    36812.755 
   26400    300.68663   -1273.7425    353.16717    436.40733    557.14151    36812.755 
   26500    294.03716   -1273.3763    345.55606    399.15367    387.94199    36812.755 
   26600    297.32767   -1274.8049    336.84913    403.86812    713.67351    36812.755 
   26700    305.52635   -1269.5403    372.66792    481.95172     104.6978    36812.755 
   26800    300.92503   -1276.7082    335.94539     417.2957   -173.32632    36812.755 
   26900    290.70652   -1234.4946    365.31111    442.75943    306.04597    36812.755 
   27000    301.25081   -1269.5073    368.50542    458.52689    602.10061    36812.755 
   27100    304.64754   -1233.6552    388.23606    529.43887    807.11696    36812.755 
   27200    305.16426   -1274.3613     357.7361     460.5647    475.85017    36812.755 
   27300    298.71361   -1293.4602    345.20135    399.81965    446.43112    36812.755 
   27400    293.01165   -1242.8642    350.48405    429.96567    201.56334    36812.755 
   27500    303.33171   -1226.5727    355.99464    498.34173   -47.011865    36812.755 
   27600    294.00712   -1222.9073    362.38466    466.31572    4.2354944    36812.755 
   27700    298.39115   -1248.6938    372.62268     470.5522   -24.663222    36812.755 
   27800    291.58002   -1277.6392    354.46331    392.70912     180.8972    36812.755 
   27900    301.30164   -1257.8641    343.53589       445.43   -91.259238    36812.755 
   28000    296.71317   -1244.9562    365.49245    459.58683    26.126166    36812.755 
   28100     305.4774   -1225.7736    357.00477    509.83431    880.18874    36812.755 
   28200     300.0706   -1252.1246    371.75795    473.83592     124.2546    36812.755 
   28300    286.63537    -1265.582    349.71119    377.69926    314.57413    36812.755 
   28400    310.46945   -1262.8253    361.17916    499.48585    384.67105    36812.755 
   28500    294.83038   -1269.1138    377.00803    438.44798    325.83356    36812.755 
   28600    290.26313    -1231.086     371.5187     450.3747     77.71048    36812.755 
   28700    307.38587   -1256.2349    352.77376    483.75483   -7.9282847    36812.755 
   28800    300.43126   -1241.7464    353.34906    467.43289    173.22241    36812.755 
   28900    299.67486   -1264.6082    353.42155    441.22993   -117.55538    36812.755 
   29000     297.4532    -1223.901     381.2409    499.73024    86.884011    36812.755 
   29100    306.77318   -1244.2633    353.06899    493.25667    76.773227    36812.755 
   29200    301.50149   -1275.7316    376.49055    461.41896     780.8177    36812.755 
   29300      307.514   -1251.0197    371.87482    508.64933     752.0707    36812.755 
   29400    299.37793   -1263.4188    377.59974    465.25748    654.68706    36812.755 
   29500    308.26064   -1301.6107    360.00345    449.55651    766.04369    36812.755 
   29600    295.33255    -1297.907    357.92017    392.83314    89.431049    36812.755 
   29700    287.04104    -1282.025    369.24136    382.61717    241.52346    36812.755 
   29800    292.86587   -1315.8437    359.93395    365.77828    372.80945    36812.755 
   29900     292.5047   -1321.9977    355.59318    353.65353    543.21742    36812.755 
   30000    292.31721   -1311.6908    370.14339    377.66447    710.61613    36812.755 
   30100    314.56022   -1358.8071    356.24423    417.03051    1145.4422    36812.755 
   30200    296.07094   -1320.5286    376.43089    392.05455    1061.4259    36812.755 
   30300    300.83639   -1345.0893    364.14577    376.71499    683.04467    36812.755 
   30400    306.39229   -1337.1366     363.4713    409.06669    607.00804    36812.755 
   30500    298.12975   -1287.6354    368.76886    426.57704    683.70939    36812.755 
   30600    301.76711   -1281.8839    369.62192    449.59687    411.80239    36812.755 
   30700    291.92749   -1329.1616    366.63239    354.92389    -35.18329    36812.755 
   30800    311.45504   -1280.6831    363.52645    488.42326   -76.279225    36812.755 
   30900    291.79507   -1295.1843    367.22832    388.89952   -145.48543    36812.755 
   31000    306.68556   -1322.6369    372.07811    433.49673    487.57806    36812.755 
   31100    295.78466   -1307.8655    363.60058    390.59546   -138.51413    36812.755 
   31200    306.53751   -1297.9358    362.99574    448.44732   -29.788909    36812.755 
   31300    297.76308   -1298.0729    380.66873    426.38468    169.47603    36812.755 
   31400    299.76216    -1313.502    389.42084    428.72944    95.075163    36812.755 
   31500    295.68697   -1300.2722    379.32025    413.46754    103.89297    36812.755 
   31600    311.39801   -1276.1456    384.29498    513.47193     282.2025    36812.755 
   31700    304.30658   -1279.1243     377.9176    472.11265    233.01147    36812.755 
   31800    301.69298   -1278.1699    379.58013    462.93448    116.86915    36812.755 
   31900    301.65988   -1261.3916    371.96817    471.95141   -92.117259    36812.755 
   32000    303.73778   -1273.0812    379.81782    477.48895   -224.44948    36812.755 
   32100    302.02155   -1280.2547    360.21881    442.97122   -983.02473    36812.755 
   32200    297.56676   -1306.5369    393.73782    430.10373   -502.20777    36812.755 
   32300    294.12797   -1258.0441    392.14135    461.48109   -596.85191    36812.755 
   32400    298.42086   -1280.5361    396.63764    462.85889   -672.03737    36812.755 
   32500        304.6   -1283.7175    389.71093    480.63694    277.54947    36812.755 
   32600    302.84284   -1319.2139    378.83198     426.3316    425.00716    36812.755 
   32700    302.63066   -1280.4051    388.92744    474.27831     232.8124    36812.755 
   32800    293.31574   -1318.6415    361.22866     366.3054    395.02108    36812.755 
   32900    300.17061   -1319.8094    379.80115    414.64567    425.34985    36812.755 
   33000    295.61182   -1278.1002    394.34356    450.32365    563.42059    36812.755 
   33100      308.032   -1324.3952    362.46932    428.20598    1066.4228    36812.755 
   33200    307.68869   -1306.9039    377.05698    458.73564    1154.8031    36812.755 
   33300    305.80288   -1273.3029    378.87495    485.64407    685.82165    36812.755 
   33400    293.24257   -1285.0299    370.48941    408.84757    301.16902    36812.755 
   33500     295.0896   -1291.5803    394.41646    434.55969    440.80093    36812.755 
   33600     292.9558   -1312.2953    396.55049      406.349    239.20374    36812.755 
   33700    304.55702   -1336.4521    393.92618    431.92362    812.24463    36812.755 
   33800     309.4621   -1321.1629    386.43936    461.86233    550.33095    36812.755 
   33900     284.9573   -1320.1098    387.58328    353.47054   -29.589987    36812.755 
   34000    291.52945   -1301.0227    387.82089    402.45493   -219.26479    36812.755 
   34100    296.46277   -1293.0441    401.72814    446.60467   -259.90176    36812.755 
   34200    295.15414   -1295.4146     398.1239    434.72409   -312.41286    36812.755 
   34300    305.46278   -1265.9688    377.53303    490.10135   -166.71314    36812.755 
   34400    299.91009   -1283.4124    390.78306    460.84877   -630.87933    36812.755 
   34500    297.28241   -1283.1923    398.10509    456.53239   -524.32523    36812.755 
   34600    295.52556   -1292.3584    397.45915    438.79178   -432.54999    36812.755 
   34700    302.87333   -1277.0604    397.22287    487.01363    70.646891    36812.755 
   34800    310.00743   -1310.6639     377.7376    466.12061    674.28644    36812.755 
   34900    301.15539   -1286.4206    391.99556    464.67313    300.79732    36812.755 
   35000    300.74767   -1290.5758    382.42799    449.11031    369.57505    36812.755 
   35100    291.57652   -1276.7197    411.44171    450.59127    57.067785    36812.755 
   35200    293.69376   -1269.0199    387.31366    443.71797   -507.35708    36812.755 
   35300    297.25207   -1294.8043    383.01436     429.6927   -131.67049    36812.755 
   35400    305.88666   -1314.0888    396.93229    463.29357   -8.5926198    36812.755 
   35500    295.04096   -1292.0199    384.37765    423.86176   -79.811286    36812.755 
   35600    283.00529   -1310.1254     394.2495    361.31177   -294.75624    36812.755 
   35700    292.73599   -1289.9211    383.48225    414.66294    181.84338    36812.755 
   35800    298.01628   -1294.9115    409.04602      459.066    174.54031    36812.755 
   35900    304.27375   -1304.6366    384.45015     452.9847    276.96922    36812.755 
   36000    295.68466   -1247.9559    377.26782     463.7209   -175.01809    36812.755 
   36100     295.4218   -1305.1563    397.33233    425.39877    129.72067    36812.755 
   36200    290.92574   -1285.1752    406.71358    434.47067    393.70119    36812.755 
   36300    292.18521   -1274.3201    419.93499    464.23109     470.6304    36812.755 
   36400    294.79241   -1302.8944    382.43625    409.92424    521.64555    36812.755 
   36500    301.67892   -1268.5443    397.30917     490.2257    -85.04214    36812.755 
   36600    296.95482   -1256.9175      393.676    476.89967   -205.41283    36812.755 
   36700    292.61615   -1278.5782    405.67619    447.65893    321.80141    36812.755 
   36800    294.36783   -1293.5701    402.36272    437.25884    137.85324    36812.755 
   36900     303.6634   -1297.6102    390.51426    463.32068     204.0021    36812.755 
   37000    293.17213   -1265.4849    409.16369    466.74892    371.02258    36812.755 
   37100    307.86718   -1296.0948    399.77864    493.07186    264.79882    36812.755 
   37200    300.15182   -1325.9933    374.02077    402.59659   -384.94598    36812.755 
   37300    296.31691   -1302.7911    403.20483     437.6761    227.39013    36812.755 
   37400    304.93103   -1263.2998    393.96336    506.80093   -68.534457    36812.755 
   37500    298.01298    -1271.366    392.67217    466.22278    83.729089    36812.755 
   37600    298.48049   -1290.6532    384.62752    441.00079    191.91746    36812.755 
   37700    295.73716   -1296.7798    381.56259    419.42874    89.525912    36812.755 
   37800    293.21916   -1266.5902    406.76079    463.45298    200.85217    36812.755 
   37900    291.89246    -1288.149    397.42798    426.57399    252.75052    36812.755 
   38000    308.28712   -1316.3403    399.96234    474.90526    648.64594    36812.755 
   38100    315.18831   -1290.2598    392.49899    524.66715    448.65445    36812.755 
   38200    291.31362   -1315.1393    389.52275    389.06616    314.07737    36812.755 
   38300    305.87988   -1304.0871    398.58329    474.91573    917.10669    36812.755 
   38400    306.74921   -1331.6375     383.8175    436.52278    323.82933    36812.755 
   38500    296.47365   -1287.7976    407.60887    457.78102    537.22307    36812.755 
   38600    296.89718   -1316.7954    387.51165     410.5973   -86.285526    36812.755 
   38700    295.74494   -1337.3859    406.75579    404.05091    500.22308    36812.755 
   38800    311.32606    -1289.463    400.74015    516.27497    53.863456    36812.755 
   38900    298.01699   -1291.6706    409.27073     462.5348   -224.34644    36812.755 
   39000    307.09601   -1308.7867    396.12137    473.24252   -39.276384    36812.755 
   39100     303.2112   -1339.8777    395.87129    424.36946   -137.49851    36812.755 
   39200    291.68799   -1330.4342    410.63928    396.57729   -384.72977    36812.755 
   39300    298.05922   -1317.3235    385.56815    413.36992   -379.40291    36812.755 
   39400    297.18767   -1313.2908    404.78067    432.68192   -1150.6135    36812.755 
   39500    298.55603    -1347.742    395.80475    395.43007   -532.77431    36812.755 
   39600    300.96515   -1317.1526    388.41348    429.50051   -89.538209    36812.755 
   39700    292.09504   -1315.1336    383.85286    386.92855   -175.65756    36812.755 
   39800    304.65608   -1333.8467    403.53831    444.58812   -34.844336    36812.755 
   39900    304.03399   -1340.9652    412.38217    443.50614   -28.668021    36812.755 
   40000    303.05706   -1343.2898    386.77944    411.16994    200.77654    36812.755 
   40100    303.31069   -1324.1402    404.99023    449.67493    955.06246    36812.755 
   40200    295.45136   -1337.1296    393.16677    389.39327    570.40633    36812.755 
   40300    298.68258   -1323.1062    410.90527    435.73752    140.33694    36812.755 
   40400    306.09539   -1303.2942    412.33795    490.43582    2.4589937    36812.755 
   40500    290.62622   -1362.1835    412.77251    362.16957     55.30954    36812.755 
   40600    310.53898   -1327.5991    402.75828    476.60496    427.66387    36812.755 
   40700    296.65118   -1310.6301       429.44    457.58078    410.80189    36812.755 
   40800    298.10645    -1315.755    393.91003     423.4935   -510.76447    36812.755 
   40900    296.55956   -1334.3232    405.08732    409.12151    7.6268216    36812.755 
   41000    295.94569   -1323.3823     390.8853    403.09006     146.3414    36812.755 
   41100    300.70758   -1330.9389    384.99902    411.13727    56.663226    36812.755 
   41200    290.17983   -1330.3084     393.9283    373.18591    635.61026    36812.755 
   41300    294.24775   -1349.5447    412.57046    390.95007    340.21139    36812.755 
   41400    308.55438   -1360.6151    395.58335    427.45757     526.3018    36812.755 
   41500    290.52994   -1331.5147    407.49399     387.1253   -797.16197    36812.755 
   41600    304.25792   -1357.4783    409.93352    425.55492   -618.46106    36812.755 
   41700    301.48749   -1331.8577    410.90185    439.64103   -384.64453    36812.755 
   41800    298.72524   -1338.4325    414.93839    424.63687   -275.92086    36812.755 
   41900    301.37838   -1344.2865    403.73236    419.55035   -197.65139    36812.755 
   42000    307.74207   -1355.3015     402.7357    436.25767   -517.04915    36812.755 
   42100    309.10085   -1350.2679    404.33086    449.01852    -171.8867    36812.755 
   42200    305.74078   -1372.5475    408.99518    416.23941   -267.72518    36812.755 
   42300    299.24265   -1368.3179    405.47363     387.6218   -283.15523    36812.755 
   42400     299.7246   -1367.7154    403.93925    388.86484   -99.562311    36812.755 
   42500    300.43788   -1314.9315    389.23574    430.16433   -43.294615    36812.755 
   42600    294.61602   -1310.4258    387.92542    407.08591   -490.58903    36812.755 
   42700    301.78664   -1333.9811    410.73055    438.69635   -436.29107    36812.755 
   42800    304.95402     -1361.39    400.66685    415.51798    86.446783    36812.755 
   42900    302.30235   -1309.0639     408.6378    463.84817    120.54516    36812.755 
   43000    291.43688   -1343.0122    409.05272    381.27957   -86.867787    36812.755 
   43100    293.70938   -1353.8023    404.72941    376.42179   -124.98384    36812.755 
   43200    301.33788   -1310.4532    404.76708    454.23557   -315.45554    36812.755 
   43300    303.70942    -1338.592    387.75915    419.79144   -144.21131    36812.755 
   43400    300.49588   -1321.5298    402.18648     436.7785   -499.50147    36812.755 
   43500    295.33705   -1362.5511    393.09242     363.3816    343.66759    36812.755 
   43600    294.02909   -1321.9756    393.18325    398.14523    155.41408    36812.755 
   43700    295.10148   -1353.6604    397.03518    375.15191     484.4005    36812.755 
   43800    304.28652    -1315.549    406.73983    464.41952    437.33379    36812.755 
   43900    302.35653   -1326.4145    431.28823    469.39252     493.4888    36812.755 
   44000    298.58458   -1323.5616    396.79779    420.73244   -306.26051    36812.755 
   44100    289.45979   -1312.8834     422.0895    415.52262    397.02438    36812.755 
   44200    310.92002   -1329.0036    404.56387    478.72566    266.92088    36812.755 
   44300    305.02952   -1294.7356    412.80591    494.65218    702.03458    36812.755 
   44400    297.96791   -1347.5898    435.79434     432.9178     576.4373    36812.755 
   44500     293.2113   -1342.4913    432.04259    412.79821   -20.333241    36812.755 
   44600    305.32662   -1284.8122    416.54259    509.65304   -28.125803    36812.755 
   44700    304.62467   -1303.7431    422.86149    493.87324    834.48869    36812.755 
   44800    300.29414   -1334.9586    412.17046    432.42323    848.52059    36812.755 
   44900    288.47313   -1336.9757    414.97696    379.86501    775.11786    36812.755 
   45000    297.74707   -1321.1527    408.60057    431.16448    190.33204    36812.755 
   45100    299.25743   -1331.8841    403.64938      422.298    306.79602    36812.755 
   45200    293.19716   -1301.3523    405.94751    427.77831    34.984087    36812.755 
   45300    307.03839   -1337.0881    418.79219    467.35188   -106.93445    36812.755 
   45400    283.75856   -1363.9358    399.39581    316.04719   -191.94114    36812.755 
   45500     294.7379   -1299.8154    413.47483    443.79579    56.119492    36812.755 
   45600    301.68028   -1279.7892    399.10699    480.78471    259.26626    36812.755 
   45700    298.32042   -1312.6612    419.43937    453.08228   -288.72645    36812.755 
   45800    293.51966   -1316.9983    426.15378      433.794    165.93228    36812.755 
   45900    300.98502   -1330.5719    402.18348    429.94089    -413.8338    36812.755 
   46000    300.59868   -1350.9737    404.54596    410.15801      327.321    36812.755 
   46100    299.28257   -1368.2288    414.76116    397.17858   -267.68163    36812.755 
   46200    312.85338   -1349.4438    417.10399    479.55071   -19.939254    36812.755 
   46300    289.00425   -1353.6686    408.74926    359.34132   -415.23031    36812.755 
   46400    302.60149   -1356.0196    400.43898    410.04374   -173.90158    36812.755 
   46500    286.44947   -1352.1995    414.60345    355.13508   -580.29183    36812.755 
   46600    287.32555   -1380.8572     399.8999    315.72747   -184.48204    36812.755 
   46700    304.95343   -1314.9566    398.34518    459.62703      44.7552    36812.755 
   46800    309.06455    -1404.996    413.32488    403.12068   -593.82754    36812.755 
   46900    300.20508   -1354.0019    407.66533    408.47284   -613.93265    36812.755 
   47000    295.51428     -1398.17    400.57912    336.04927   -803.25299    36812.755 
   47100    301.54263    -1353.645    407.13035    414.33109    93.873746    36812.755 
   47200    293.81077   -1385.6107     419.0867     359.4283    305.03583    36812.755 
   47300     296.3721   -1341.5864    411.98874    407.91379    764.40661    36812.755 
   47400    306.23093    -1354.661    437.44187    464.78462    1118.6618    36812.755 
   47500    309.98804   -1362.5855    397.39166    433.76557    583.92858    36812.755 
   47600    311.02778    -1360.631    393.81785    436.83862    599.18206    36812.755 
   47700    298.01952   -1343.5064    420.49003     421.9297   -200.79749    36812.755 
   47800     295.3022   -1353.3907    439.75909    419.05145    442.75064    36812.755 
   47900    299.63807   -1367.1915    427.82523    412.88433   -75.496665    36812.755 
   48000    296.95563   -1313.2136    429.20071    456.13194   -209.69899    36812.755 
   48100    296.53614   -1299.4831    432.99525    471.76389   -40.457766    36812.755 
   48200    303.96316   -1381.0216    446.08382    436.83168   -900.06035    36812.755 
   48300    312.80629   -1331.7129    417.63321    497.59838   -417.95938    36812.755 
   48400     303.9137   -1324.6119     443.1823    490.11669    174.49945    36812.755 
   48500    292.94307   -1344.8454    425.62276    402.81377    183.43731    36812.755 
   48600    304.44266   -1388.9318    421.70623    406.70787   -98.880718    36812.755 
   48700    297.36603   -1403.4827    408.20624    346.72053   -418.06001    36812.755 
   48800    292.71635     -1381.99     426.5328    365.55605   -653.57662    36812.755 
   48900    307.41447   -1371.2947    413.69859    429.74884   -404.24648    36812.755 
   49000    298.87768   -1350.8451     436.3631    434.33701    47.047028    36812.755 
   49100    299.25969   -1355.4502    438.75918     433.8519   -209.09154    36812.755 
   49200      293.719   -1318.6296    447.25722    454.16578    20.388394    36812.755 
   49300    301.97227   -1323.6448    429.15176    468.29166    212.11124    36812.755 
   49400    298.96147   -1319.6933    435.56125    465.06506   -105.05168    36812.755 
   49500    298.09131   -1321.4701    411.47304    435.27308    2.2079894    36812.755 
   49600    309.44197   -1319.1327    412.53506    489.89744   -253.07306    36812.755 
   49700    302.89053   -1344.0332    416.90152    439.79701   -656.94514    36812.755 
   49800    296.13038   -1320.0196    419.67528     436.0762   -365.43394    36812.755 
   49900    295.58434   -1316.6182    421.36902    438.70717   -140.47067    36812.755 
   50000     301.7732   -1371.7657    439.34102    429.46158   -76.457751    36812.755 
   50100    292.66987   -1338.3391    439.99467    422.45905     215.6912    36812.755 
   50200    300.59784   -1334.9874    423.63018    445.22469    668.34094    36812.755 
   50300    302.98108   -1323.2446    410.99501    455.08776    173.44502    36812.755 
   50400    307.54674   -1284.7604    413.39304    516.57462    99.293062    36812.755 
   50500    302.88667   -1286.3959     436.5374    517.05277    513.28691    36812.755 
   50600    303.98824   -1346.9363    433.31324    458.25961    171.32678    36812.755 
   50700    287.88588   -1328.1226      442.059    413.14994    184.53737    36812.755 
   50800    304.35279   -1350.6654    409.36288    432.22536    350.16516    36812.755 
   50900    293.04739   -1365.0871    420.54178     377.9619    451.25355    36812.755 
   51000    287.77259   -1349.8783    429.93003    378.75405    384.30494    36812.755 
   51100    314.17096   -1388.0134    419.27909    449.10237    738.30718    36812.755 
   51200    286.47277   -1374.3409    435.77221    354.26762    1377.4941    36812.755 
   51300    307.99853   -1393.9282    422.18972    418.24242     991.8355    36812.755 
   51400    304.14361   -1405.1793    415.26456    382.66908    325.43139    36812.755 
   51500    304.96928   -1328.2601    412.80045    460.85037    690.16435    36812.755 
   51600    302.01565   -1368.7871    415.93716     410.1305    518.20515    36812.755 
   51700    304.74426   -1335.9018    425.20161    464.59431    354.51469    36812.755 
   51800    303.56557   -1349.1412    430.44954    451.28352   -136.70555    36812.755 
   51900    306.64678   -1375.6916    424.09912      432.288    113.75174    36812.755 
   52000    302.65396   -1377.9088    410.87337     398.8257    113.32029    36812.755 
   52100    301.80315   -1315.0797    419.19009    466.13183   -257.54039    36812.755 
   52200    299.98987    -1377.208    407.29531    383.92549    295.37935    36812.755 
   52300     292.4611   -1342.4212     425.2831    402.72317    352.91428    36812.755 
   52400    305.00345   -1304.4526    428.47644     500.4881   -86.674824    36812.755 
   52500    298.93292   -1331.6584    417.67758     435.0874   -59.180239    36812.755 
   52600    294.61548   -1321.4156    434.48531    442.65356   -14.482097    36812.755 
   52700    294.16472   -1344.5283    439.97388    422.99517    147.81288    36812.755 
   52800    305.42213   -1346.1777    430.46835    462.64442    449.40693    36812.755 
   52900    300.27226   -1334.4386     434.4483    455.12234    9.3358612    36812.755 
   53000    290.16003   -1371.6758    435.10077    372.90168    189.56725    36812.755 
   53100    295.80133   -1310.7724    440.21805    464.38124    156.51789    36812.755 
   53200    299.04294   -1321.6214    436.29501    464.23831    -5.832614    36812.755 
   53300    305.43108   -1357.1273    455.07745    476.34425    876.08335    36812.755 
   53400    299.26054    -1296.214    410.66731    465.00014    519.13142    36812.755 
   53500    294.07725   -1296.7347    439.74127    470.16149    863.13009    36812.755 
   53600    292.76589   -1305.8538    465.51103    480.89396    683.22201    36812.755 
   53700    300.50649    -1323.421    453.32212    486.07075    1213.4039    36812.755 
   53800    305.50452   -1316.6402    453.38353    515.46886    666.62487    36812.755 
   53900    296.21294   -1287.4378    454.36688    503.72218    563.39325    36812.755 
   54000    307.75217   -1298.4005     425.7165    516.18501    286.46697    36812.755 
   54100    293.69219   -1314.4077    462.78542     473.7948     183.1996    36812.755 
   54200    308.06673   -1319.7126    425.62081     496.1969    250.38487    36812.755 
   54300    302.65885   -1324.7386    426.06522    467.20976    282.39778    36812.755 
   54400    286.61931   -1315.7799    440.03093    417.74863    -591.7192    36812.755 
   54500     306.3221   -1318.5947    434.32888    498.14935   -350.18498    36812.755 
   54600    301.11899   -1320.3032     424.2688    462.89946   -390.21934    36812.755 
   54700    306.06344   -1303.1044    437.80194     515.9454    62.378621    36812.755 
   54800     299.2202   -1288.1801    423.75322    485.93783    3.3695335    36812.755 
   54900    288.99093   -1340.5073    428.84907    392.54237    204.02365    36812.755 
   55000    304.81283   -1311.2391    432.70967    497.07456   -291.69572    36812.755 
   55100    296.19395    -1334.601    423.12001     425.2264   -118.55305    36812.755 
   55200    297.41496   -1327.5873    445.19148    459.82201   -14.024718    36812.755 
   55300    300.38543   -1353.4492    432.98075    435.15487   -503.22275    36812.755 
   55400    294.15216   -1330.7215    436.55113     433.3226    23.748736    36812.755 
   55500    298.88207   -1279.8396    442.30751    511.30668    189.62183    36812.755 
   55600    299.88225    -1314.596    408.13289    446.88943   -38.773683    36812.755 
   55700     292.7338    -1347.357    415.52126    389.25624   -85.420486    36812.755 
   55800    311.50423    -1362.459    418.01602    461.35894    446.86529    36812.755 
   55900    295.01442   -1360.5848    404.93703     375.7365    666.89295    36812.755 
   56000    305.22398   -1377.5313    445.53637    445.46451    825.99994    36812.755 
   56100    300.05841   -1376.7303    432.18033    409.59757    318.77176    36812.755 
   56200    293.17755   -1354.8687    436.39079    404.61673    195.23067    36812.755 
   56300    306.44349   -1357.5694    433.58603     458.9797     223.6388    36812.755 
   56400    293.43643   -1341.2907    443.02705    425.99923   -432.75779    36812.755 
   56500    294.13422   -1341.7007    441.95466    427.66597    -713.8163    36812.755 
   56600    294.24878   -1341.5222    423.57837    409.98517   -917.78113    36812.755 
   56700    299.74484   -1364.9981    431.50393    419.23821   -1081.2543    36812.755 
   56800    300.22875   -1349.0939    439.44864    445.27097   -721.29885    36812.755 
   56900    308.01941    -1400.274    464.09161    453.89272   -101.40298    36812.755 
   57000    297.03268   -1354.3842    438.31244    424.42083   -187.16216    36812.755 
   57100    297.84434   -1340.4592    456.20527    459.90161   -151.37308    36812.755 
   57200    298.53537    -1342.138    422.46579    427.60195   -217.01754    36812.755 
   57300    313.91441   -1382.9242    426.44408    460.19876    116.67121    36812.755 
   57400    305.26793   -1384.4351    448.82384    442.04653    232.41362    36812.755 
   57500    305.37585   -1357.3177    436.34769     457.1748   -12.815953    36812.755 
   57600    298.69597   -1374.1915    431.40192    405.20929    146.02157    36812.755 
   57700     300.3053   -1383.4315    405.56978    377.39994    -109.3959    36812.755 
   57800    294.50974   -1388.2605    416.65051    357.49669    294.05204    36812.755 
   57900    303.05688    -1379.361      418.526    406.84444    239.77775    36812.755 
   58000    309.41629   -1410.8443    432.89931     418.4341    23.382626    36812.755 
   58100    295.48276   -1367.0102    437.38333    403.87094   -361.52244    36812.755 
   58200    295.04115   -1381.8039    429.64454    379.34557    151.10855    36812.755 
   58300    307.17634   -1365.4697    460.64591     481.4466   -82.978253    36812.755 
   58400    306.72857   -1347.2351    456.51197     493.5265   -286.70309    36812.755 
   58500    304.35737   -1420.2254    425.23752    378.56062    48.548277    36812.755 
   58600    303.17494   -1395.6202    435.41769    408.00976   -210.44714    36812.755 
   58700    313.37641   -1382.3139    414.75406    446.69115    80.818163    36812.755 
   58800    299.79778   -1326.2334    424.86271    451.60063    52.992871    36812.755 
   58900    291.09068   -1323.9654    434.20989    423.92111   -180.00585    36812.755 
   59000    299.02715    -1371.887    425.39653    403.00297   -136.31774    36812.755 
   59100    293.51907    -1383.146    426.46292    367.95278   -209.45865    36812.755 
   59200    308.11487   -1379.3849    440.15041    451.27136   -346.70814    36812.755 
   59300    302.01034   -1406.4459    414.56177    371.07239    67.089347    36812.755 
   59400    298.33124   -1406.9057    452.07475    391.52199   -290.08853    36812.755 
   59500    302.35733   -1412.3199    448.13276    400.33529   -429.97868    36812.755 
   59600    294.51575   -1382.1801    446.87221    393.82591     351.0372    36812.755 
   59700    306.48468   -1365.7479     437.9318    455.33282    394.03268    36812.755 
   59800     300.4471    -1382.118    427.89371    401.67738   -176.57897    36812.755 
   59900    293.03437   -1395.3498    454.47108    381.56966    42.930068    36812.755 
   60000    300.82142   -1374.0709    443.91567    427.43568    322.68427    36812.755 
   60100    300.86297   -1408.6661    415.82301    364.93533    328.55734    36812.755 
   60200    307.21193   -1374.0957    432.44087    444.77615   -92.294058    36812.755 
   60300    304.58612   -1405.4342    430.89662    400.04323    82.964116    36812.755 
   60400    299.06436   -1431.3977    433.86692     352.1307   -131.36985    36812.755 
   60500    303.70369   -1376.6042    433.87919    427.87346     166.1012    36812.755 
   60600    300.26768   -1367.8036    440.67254    427.96094   -21.439668    36812.755 
   60700    289.69096   -1373.2749    435.24301    369.32788   -241.58684    36812.755 
   60800    303.21716   -1382.9592    412.24856    397.69213    114.93611    36812.755 
   60900    297.10148   -1375.3705    420.77382    386.20639    172.57619    36812.755 
   61000    301.33329   -1407.9304    426.35459    378.32515    207.77455    36812.755 
   61100    303.29719   -1378.7511    442.76354    432.77634   -267.50359    36812.755 
   61200    290.18305   -1363.9794    437.95128    383.55239   -178.59977    36812.755 
   61300    303.82432   -1360.8798     453.1334     463.3965    361.90519    36812.755 
   61400    304.07389   -1382.2567    443.48891    433.50141    173.04637    36812.755 
   61500    290.77086   -1438.3719    442.15124    316.01266    362.17198    36812.755 
   61600    299.09641   -1407.1566    437.83511    380.48459    229.27282    36812.755 
   61700    287.11335   -1379.5412    422.89559    339.08155   -141.66132    36812.755 
   61800    287.69949   -1402.7041    453.26397    348.93225   -353.90408    36812.755 
   61900    306.31704   -1377.6413    453.35153    458.10266   -319.60962    36812.755 
   62000    293.47822   -1402.0736    427.43757    349.81545   -103.54545    36812.755 
   62100    297.39909   -1399.7328    447.49903    389.91242    98.604707    36812.755 
   62200    303.79593   -1412.8972    427.62895    385.74654    585.18044    36812.755 
   62300      305.017   -1369.9502    480.36813    486.94325    108.39484    36812.755 
   62400     308.7307   -1376.5908    442.56248    459.25676    168.09301    36812.755 
   62500    309.72807    -1338.987    462.38025    521.17945    590.35462    36812.755 
   62600    305.83061    -1408.423    462.59681    434.37102    672.55926    36812.755 
   62700    294.61204   -1415.3369    449.56049    363.79195    23.206792    36812.755 
   62800    296.54643   -1395.7889     436.6438    379.15301    184.90294    36812.755 
   62900    304.78045   -1382.4388    474.84862    467.86766    301.18444    36812.755 
   63000    304.46449    -1403.188    446.42967    417.27362    368.20878    36812.755 
   63100    297.55871   -1442.0164    441.62178    342.47191     287.2483    36812.755 
   63200    310.99565   -1439.6935    420.17935     383.9925    109.62204    36812.755 
   63300    303.28216   -1405.5718    440.41019    403.53458   -135.57643    36812.755 
   63400    294.14401   -1436.8376    408.57499     299.1936    35.720173    36812.755 
   63500    297.19889   -1428.9624    441.62321    353.90351   -283.16953    36812.755 
   63600    302.83886   -1380.6203      448.846    434.92125   -335.73061    36812.755 
   63700    302.25239     -1382.98    435.73564    416.80444   -155.22516    36812.755 
   63800    291.80044   -1416.7349    466.87871    367.02361   -227.56254    36812.755 
   63900    290.80363   -1457.0393    456.82284    312.16475   -442.47047    36812.755 
   64000    300.67502   -1416.8556    429.75491     369.8296   -370.72992    36812.755 
   64100    301.36434   -1405.8677    443.22531    397.39875   -548.48412    36812.755 
   64200    296.21657   -1393.3285    468.57997    412.06094    -398.5161    36812.755 
   64300    300.67369   -1399.9177    429.89177    386.89834    276.96564    36812.755 
   64400    298.55737   -1404.4631    437.15521     380.0655    -114.3874    36812.755 
   64500    308.69724   -1424.8776    453.90068    422.15713    562.21483    36812.755 
   64600    308.02212   -1413.2048    462.04047    438.92299    626.51731    36812.755 
   64700    305.91552   -1410.9296    460.67891    430.32965    607.23957    36812.755 
   64800    306.22273   -1443.2707    461.45598    400.15208   -34.907555    36812.755 
   64900    284.93221   -1460.2542     445.6373    271.26694    297.31281    36812.755 
   65000    302.52865   -1377.4474    452.06923     439.9174    272.79555    36812.755 
   65100    313.91366   -1389.2529    421.91894    449.34158   -363.55019    36812.755 
   65200    297.39366     -1403.12    459.64647    398.64811    4.5755176    36812.755 
   65300    304.52171   -1366.2301    481.20522    489.26529    618.89977    36812.755 
   65400    300.89681   -1360.4652    464.29901    461.76499    250.16189    36812.755 
   65500     304.8342   -1380.3894    444.25675    439.56773   -110.16495    36812.755 
   65600    297.35972   -1408.6885    458.71089    391.99086   -444.80125    36812.755 
   65700    304.53414   -1441.2814    418.51246    351.57734   -737.52899    36812.755 
   65800    304.87355   -1435.0746    437.73396    378.53738   -265.73341    36812.755 
   65900    295.11384   -1408.4997     436.3547    359.68796   -173.68595    36812.755 
   66000    305.71598   -1389.6627     437.4711    427.48826   -112.72217    36812.755 
   66100    308.66249   -1397.1953     440.6455    436.42746    506.03322    36812.755 
   66200    292.55701   -1435.4092    462.74525    347.63018     206.8992    36812.755 
   66300    289.48985   -1428.2677    427.99736    306.18186    521.83343    36812.755 
   66400    296.11577   -1385.9573    461.39055    411.78782    252.69759    36812.755 
   66500    305.49185   -1396.9031    454.48303    436.24825    212.55526    36812.755 
   66600    298.10798   -1391.4804    451.28204    405.14691    252.69452    36812.755 
   66700    291.78187   -1373.6836    443.45935    386.57167    269.83806    36812.755 
   66800    298.99166   -1356.0017    463.45172    456.78338    865.89836    36812.755 
   66900    303.88888   -1360.0053    451.75866    463.18761   -68.312776    36812.755 
   67000    291.49851   -1413.5718    449.44943     351.3948   -13.574312    36812.755 
   67100    303.44806   -1382.5149    456.94971    443.87967    253.13458    36812.755 
   67200    304.11612   -1392.4698    458.17425    438.16418    198.90327    36812.755 
   67300    300.93456   -1327.3379    474.98919    505.75286    613.47064    36812.755 
   67400    302.69458   -1339.9545    489.52776     515.6177    339.63805    36812.755 
   67500    304.91224   -1374.2901    451.84349    453.60601   -15.841846    36812.755 
   67600    308.34934   -1392.9484    427.88331     426.4989    92.607499    36812.755 
   67700    303.66061    -1372.489    487.64119     485.5562     -221.674    36812.755 
   67800    305.89649   -1343.0704    443.56664    480.99065   -254.02382    36812.755 
   67900    303.42321   -1350.3067    439.39585    458.42184   -415.55965    36812.755 
   68000    290.68999   -1355.8951    445.42733     401.4006   -309.87804    36812.755 
   68100    294.46145   -1359.1351    457.33115    427.08481   -318.87075    36812.755 
   68200    298.19198   -1390.4904    434.08135    389.31537    216.48009    36812.755 
   68300    299.97644   -1411.5703    447.87363    390.08093    360.21785    36812.755 
   68400    296.51277   -1395.7734    447.69826    390.07104    243.07492    36812.755 
   68500    301.91311   -1412.0142    430.73094    381.23442    299.80938    36812.755 
   68600    301.07269   -1436.9065    422.89995    344.71835   -10.901358    36812.755 
   68700    300.70082   -1418.1246    421.74985    360.67197    178.78689    36812.755 
   68800    297.69501   -1431.2228    438.56153    350.82036    247.56077    36812.755 
   68900    298.16176    -1399.295     450.0851    396.37817   -311.50789    36812.755 
   69000    294.05383   -1329.2405    456.85352    454.66221   -58.045668    36812.755 
   69100     295.4728   -1400.3648    446.20368    379.29177    -6.936171    36812.755 
   69200    293.02672   -1416.0477    428.37939    334.74556   -145.89902    36812.755 
   69300     307.0675   -1404.6991    439.82469    420.90477   -821.13369    36812.755 
   69400    297.63859   -1386.9064    449.45969     405.7803    -563.7804    36812.755 
   69500    302.14301   -1402.5456    452.35197    413.36154   -195.03647    36812.755 
   69600    309.26833    -1423.962    424.83561      396.585    226.15117    36812.755 
   69700    294.57967    -1404.565    434.86375    359.72107   -373.09283    36812.755 
   69800    290.39575   -1359.2246    432.77561    384.09141   -26.861396    36812.755 
   69900    300.77825    -1388.332    446.64341     415.7075   -151.01055    36812.755 
   70000    293.12313   -1404.0315    440.11014    358.92758   -77.572368    36812.755 
   70100    297.19642   -1403.4576    425.04932    362.82326   -538.04347    36812.755 
   70200    289.18963   -1381.9055    446.10675    369.29858    107.62163    36812.755 
   70300    298.85062   -1370.0245    433.57971    412.25205    395.99981    36812.755 
   70400    294.56858   -1348.6506    438.93743    419.65905    456.08033    36812.755 
   70500    309.16066   -1365.1302    456.36188    486.45713    714.72482    36812.755 
   70600    293.94826    -1405.003    451.08434    372.65411    400.39508    36812.755 
   70700    297.48108   -1373.1145    461.78211    431.18379    283.61092    36812.755 
   70800    294.41481    -1402.694    434.16762    360.15185   -213.86403    36812.755 
   70900    300.36367   -1365.2109    476.54728    466.86152    199.20514    36812.755 
   71000    300.57952   -1420.9867    449.30459     384.8171    243.03705    36812.755 
   71100    303.84367   -1399.6552    450.45995    422.03494   -99.075881    36812.755 
   71200    298.35288   -1408.7433    445.75228    383.45951   -39.185229    36812.755 
   71300    298.76338   -1428.4589    435.89724    355.74141   -171.89832    36812.755 
   71400    298.26356    -1430.727    430.40537    345.72583    399.38639    36812.755 
   71500    298.14617   -1408.1433    467.43558    404.80997    158.58383    36812.755 
   71600     300.0216   -1389.8901    434.39245    398.48377   -58.737444    36812.755 
   71700    314.82345   -1369.9352    439.75356    490.59979    114.30039    36812.755 
   71800    298.03842   -1394.2928    435.91762    386.65623   -121.42477    36812.755 
   71900    293.60874    -1423.432    430.88164    332.49016    214.26866    36812.755 
   72000    291.92639   -1387.0282    464.07002    394.48996    835.75253    36812.755 
   72100    305.54663   -1353.0881    445.42962    471.25705    128.97453    36812.755 
   72200    293.51293   -1390.3459    463.79871    398.06097    485.83584    36812.755 
   72300    292.55145   -1396.4498    466.01228    389.83151    13.554202    36812.755 
   72400    296.90214   -1419.4221    455.03447    375.51587   -587.75636    36812.755 
   72500    298.87255   -1429.9352    457.78867    376.64933    101.33645    36812.755 
   72600    301.08719   -1367.1249    452.04271    443.70814   -65.016049    36812.755 
   72700     286.5256   -1418.5995    479.05918    353.53438   -737.43067    36812.755 
   72800    302.07144   -1430.2321    440.48292    373.48303   -612.52093    36812.755 
   72900    292.30895   -1487.1018    442.08521    274.15801   -807.82263    36812.755 
   73000    296.56839   -1416.8239    448.43529    370.00866   -777.62934    36812.755 
   73100    293.27538   -1456.7278    449.38282    316.19107   -134.40745    36812.755 
   73200    292.27796   -1414.5308    485.44387    389.94786   -746.37694    36812.755 
   73300    310.02002    -1427.668    446.75387    418.18958   -448.89681    36812.755 
   73400    301.02464   -1463.2289    433.93701    329.21617    196.74526    36812.755 
   73500    289.79906   -1410.0948    463.46374    361.21659    531.99818    36812.755 
   73600    311.80551   -1472.3453    454.26068     389.0769   -569.37204    36812.755 
   73700    293.85156   -1439.3372     455.0487    341.84789    271.74559    36812.755 
   73800     293.2052   -1445.9133    466.21076    343.51684   -82.737622    36812.755 
   73900    286.34171   -1463.1127    468.29201    297.42408   -423.34512    36812.755 
   74000     298.7737   -1471.9943    456.17371    332.52908   -114.99544    36812.755 
   74100    294.37681   -1439.3294    446.82915    336.00649    10.240889    36812.755 
   74200     298.9354    -1447.921    452.57614     353.7346    651.99822    36812.755 
   74300    295.98124   -1460.2903    442.50065    317.95782    255.46864    36812.755 
   74400    297.70769   -1467.6114     441.5267    317.45415     335.7882    36812.755 
   74500    302.88833   -1423.3221    465.73403    409.33074    163.95068    36812.755 
   74600    299.69333   -1467.8271    425.65237    310.32515   -119.69716    36812.755 
   74700    300.36315   -1460.3278    429.61242     324.8074     247.5817    36812.755 
   74800    311.08425   -1456.5033    462.16592    409.56913   -104.10273    36812.755 
   74900     297.1006   -1434.5718    429.09224    335.31958   -407.15293    36812.755 
   75000    300.04702   -1444.3765    440.93251    350.65215    122.72209    36812.755 
   75100    304.98407   -1476.2114    422.52002    322.68539   -312.64074    36812.755 
   75200    304.62483    -1414.978    432.60812    392.38571    12.822099    36812.755 
   75300    290.35152   -1440.4271    427.52949     297.4433   -369.88364    36812.755 
   75400    298.46129   -1450.6267     448.2807    344.59377   -570.78105    36812.755 
   75500    299.11324   -1440.2644      442.851    352.46864    -254.7066    36812.755 
   75600    291.40478   -1415.4781    453.53253    353.14861    45.219703    36812.755 
   75700    297.35576   -1420.0699    449.60251     371.4832    233.98047    36812.755 
   75800    297.91383   -1395.8742    460.90968    409.50465    924.47199    36812.755 
   75900    292.33541   -1424.3307    451.05587    346.01916    616.42826    36812.755 
   76000    301.40856    -1431.381    441.02855    369.88825    666.59325    36812.755 
   76100    295.29539   -1396.6657     453.6452    389.63179    456.33103    36812.755 
   76200    305.36533   -1422.1894    457.88229    413.79031    771.34389    36812.755 
   76300    290.25961   -1414.3062    463.41234    359.03222    350.19601    36812.755 
   76400    300.24535   -1390.6104    446.22745     410.6082    478.88882    36812.755 
   76500    292.40717   -1433.5485    450.96264      337.032    498.71734    36812.755 
   76600    314.87515   -1426.9682    452.85422    446.90073   -258.83483    36812.755 
   76700    302.58647   -1404.5071     455.9631    417.01255   -271.64511    36812.755 
   76800    297.21536   -1433.9302    443.17305    350.55978   -314.08544    36812.755 
   76900    295.54426   -1418.9748    447.50224    362.30283   -634.98016    36812.755 
   77000    294.94398     -1397.27    448.11479    381.91112   -170.23837    36812.755 
   77100    298.91109   -1416.1977    441.17484    373.94686   -378.65521    36812.755 
   77200    295.85123   -1390.8971      472.448    416.71161   -658.97468    36812.755 
   77300    297.34482   -1403.6228    472.00019    410.27857     355.6779    36812.755 
   77400    304.23471   -1413.4361    457.74683    417.30573    121.26064    36812.755 
   77500    297.56393   -1430.3587    447.56942    360.10083    278.04485    36812.755 
   77600    303.65794   -1387.8352     467.9723     450.5291    570.46227    36812.755 
   77700    302.44022   -1410.5792    473.00647    427.32379    384.88556    36812.755 
   77800    292.96984   -1433.7394    452.28066    340.69848    317.95855    36812.755 
   77900      296.181   -1464.8117    451.85887    323.69618    493.36185    36812.755 
   78000     301.3726   -1472.3538    452.40687    340.13146   -133.36932    36812.755 
   78100    298.62178   -1443.0869    454.69105    359.26831     93.10009    36812.755 
   78200    290.12728   -1437.0208    433.72611    306.03421    -84.48182    36812.755 
   78300    307.00991   -1490.0982    460.59066    356.01176   -189.48347    36812.755 
   78400    307.09664   -1461.2795     463.5214    388.15259   -4.9744839    36812.755 
   78500    284.56083   -1478.1172    440.89724     246.9878    410.92445    36812.755 
   78600    306.92709   -1481.7008    484.50904    387.95372    105.78091    36812.755 
   78700    300.86335   -1432.1817    445.47514    371.07359    439.28391    36812.755 
   78800     309.3581   -1432.0276    468.31975    432.40863    428.05303    36812.755 
   78900    302.50736   -1464.9271    476.09954    376.37189   -16.481003    36812.755 
   79000    305.13444    -1418.914    464.77206    422.91342   -73.934285    36812.755 
   79100    302.22973   -1454.3875     455.9804    365.53949   -26.098644    36812.755 
   79200    292.16871   -1430.8638    436.45454    324.13247   -527.72249    36812.755 
   79300     294.3568   -1412.4851    430.69744    346.62882   -230.55942    36812.755 
   79400    300.71094   -1409.4302    477.68258    425.34468   -434.23355    36812.755 
   79500    311.22469   -1413.0911     465.8589    457.30809   -684.97816    36812.755 
   79600    304.14673    -1401.816    450.26534    421.04726   -272.66332    36812.755 
   79700    299.84996   -1405.8192    461.58408    408.97164   -300.04177    36812.755 
   79800    297.17796   -1436.9764    460.36819    364.54003   -483.49764    36812.755 
   79900    304.77924   -1419.0693    480.59618    436.97927    543.07185    36812.755 
   80000    302.06694   -1433.4506      450.007    379.76836    456.25023    36812.755 
   80100    305.17255   -1504.0195    461.80171    335.00954    61.607702    36812.755 
   80200    294.43259   -1494.7293    469.04235    303.07151    681.14589    36812.755 
   80300    297.09711   -1455.1281    470.11497    355.77022   -60.776363    36812.755 
   80400    298.40849   -1435.8129    478.05408    388.94269    -213.8564    36812.755 
   80500    297.15242   -1419.1102    433.32729    355.25008   -155.43578    36812.755 
   80600    294.87296   -1438.0484    452.42432    345.12177    123.63898    36812.755 
   80700    299.30282   -1440.8897    482.91516    392.76306   -733.47957    36812.755 
   80800    299.33287   -1387.9456    455.00762    417.93523   -638.97757    36812.755 
   80900    298.70279   -1433.4492    434.16608     348.7466   -348.10763    36812.755 
   81000    298.54491   -1459.8372    463.96447    351.44443    -69.53565    36812.755 
   81100    301.61129   -1451.0324    452.18545    362.30863   -339.85129    36812.755 
   81200    306.05359   -1463.7689    454.56443    371.99897   -35.903225    36812.755 
   81300    295.53736   -1454.0373    438.51129    318.21824    96.178146    36812.755 
   81400    309.59507   -1480.7642    475.86629    392.28807   -327.74056    36812.755 
   81500    284.69319   -1483.7456    463.11442    264.17399   -572.27998    36812.755 
   81600    302.10949   -1444.4143    463.07267    382.06228   -8.1363255    36812.755 
   81700    307.59031    -1478.456    469.53043    379.21304   -450.54331    36812.755 
   81800    294.16243   -1430.1014    471.61386    369.05176    86.316694    36812.755 
   81900    304.92011   -1470.1152    464.84141     370.8143    65.723154    36812.755 
   82000    309.15011   -1469.1139    462.25246    388.31649    149.75303    36812.755 
   82100    295.37303   -1474.4038     457.1509    315.74977   -22.815215    36812.755 
   82200    292.36537   -1456.5298    462.82717    325.72664    176.66286    36812.755 
   82300    305.34866   -1490.7323     443.2623    330.55219   -486.46756    36812.755 
   82400     290.7748   -1452.3125    450.34087    310.27944    245.27796    36812.755 
   82500    294.25897   -1465.6327    464.26652    326.60875    340.82703    36812.755 
   82600    290.89083   -1489.7872    446.92673    269.91428    15.956749    36812.755 
   82700    305.71651   -1510.6101    448.16096    317.23311    102.13404    36812.755 
   82800    300.14055   -1517.5848    448.17495    285.10838    174.05539    36812.755 
   82900    290.52639   -1488.8022    440.83982     263.1677    292.22024    36812.755 
   83000    300.52947    -1460.958    441.73074    337.04612    213.56128    36812.755 
   83100    303.43565   -1467.1273    458.79192    361.05348   -135.18246    36812.755 
   83200    297.93205   -1460.7286    467.07568    350.89849    -71.38679    36812.755 
   83300    300.20653   -1453.4338    455.50409    356.88629   -104.17101    36812.755 
   83400    303.51524   -1488.8645     455.0454    335.92889    -80.88912    36812.755 
   83500    293.92374   -1487.2333    482.25926    321.48802   -318.93174    36812.755 
   83600    292.62739   -1485.1604    460.65509    296.10638   -234.82225    36812.755 
   83700    309.11573   -1437.9741    468.08793    425.13654   -419.58734    36812.755 
   83800    307.19352   -1427.4151    468.20869    427.14153   -739.92817    36812.755 
   83900    294.19616   -1445.4208    460.27588    342.54655   -802.92116    36812.755 
   84000    319.41667   -1433.8261    464.42024    472.10447   -1231.5876    36812.755 
   84100    312.20209    -1385.117     483.6236    507.45787   -1721.1316    36812.755 
   84200    295.61368   -1428.5166    483.04952    388.62167   -1102.6759    36812.755 
   84300     298.9025   -1437.1643    450.97204     362.7387   -607.71849    36812.755 
   84400    299.61017    -1457.734    475.03629    369.42696     -926.418    36812.755 
   84500    307.19687   -1479.4888    460.59191    367.46611   -226.44797    36812.755 
   84600    293.03162   -1451.8233    461.26078    331.87345    154.70507    36812.755 
   84700     295.3629   -1435.6264    471.81334    369.14385    190.38092    36812.755 
   84800    297.28272   -1435.5742    457.96008     364.0069    1045.1572    36812.755 
   84900    307.70539   -1436.3601    507.63137    459.92919     732.2534    36812.755 
   85000    305.19097   -1483.2417     446.7932      340.862    27.299673    36812.755 
   85100     305.5941   -1458.3776    470.47954    391.23174    847.22104    36812.755 
   85200    299.91509   -1466.0949      456.404    343.80987    493.61599    36812.755 
   85300    307.39016   -1488.0925    456.15479    355.29766     596.6968    36812.755 
   85400    303.82572   -1464.4418    499.34372    406.05113    632.07486    36812.755 
   85500    304.71894   -1462.2922    471.45852    384.34655    607.27655    36812.755 
   85600    300.67058   -1447.2333    486.26469    395.94156    90.487395    36812.755 
   85700    302.92201    -1497.607    446.78264     316.2464    269.47906    36812.755 
   85800     299.4411   -1458.0069    465.24228    358.59701   -59.171294    36812.755 
   85900    307.36825   -1475.8913    441.47411    352.71929   -91.981986    36812.755 
   86000    300.51367   -1455.1198    486.50711    387.58942    601.40402    36812.755 
   86100    297.92414   -1458.6461    463.05558    348.92517    177.49882    36812.755 
   86200    307.87349   -1471.3615    454.62442    372.67951    714.66809    36812.755 
   86300    288.91169    -1458.685    483.48372    328.64171    831.90586    36812.755 
   86400    300.46321   -1443.0994    475.02621    387.90115    83.125874    36812.755 
   86500    305.04386   -1420.2007    465.20182    421.64767     11.20386    36812.755 
   86600    306.70155   -1417.3861    445.51695    412.25852   -742.66446    36812.755 
   86700     295.0919   -1453.8848    455.94711     333.7962   -306.57578    36812.755 
   86800    304.47248   -1451.3612    455.63172     378.3385   -289.44418    36812.755 
   86900    295.74816   -1447.5516    462.52577    349.66974   -817.67116    36812.755 
   87000     302.9677    -1459.093    454.77529     362.9593   -651.33746    36812.755 
   87100    309.41327   -1457.6428    476.48159    415.20432   -722.62398    36812.755 
   87200    299.39363   -1461.9073    466.40508    355.64514   -467.06964    36812.755 
[...]
  984500    300.86631   -1521.6256    476.40247    312.57036    -82.11306    36812.755 
  984600    309.48279   -1519.3965    505.93666    383.21937   -116.40807    36812.755 
  984700    305.14392   -1488.5187    474.66819    363.24759   -222.36675    36812.755 
  984800    312.12497   -1486.4687    488.26593    410.40047   -540.60604    36812.755 
  984900    302.88984   -1540.3129    470.70361    297.31631   -430.58266    36812.755 
  985000    312.33352   -1521.8969    479.87008    367.51766   -406.54882    36812.755 
  985100    294.78312   -1558.5013    479.49055    251.32964   -329.75526    36812.755 
  985200    294.50986   -1531.6694    484.56734    282.00521   -623.91823    36812.755 
  985300     308.7768   -1534.4403    447.90294    306.95577   -224.77741    36812.755 
  985400    311.77531   -1508.8103    522.02222    420.23714   -132.52944    36812.755 
  985500    303.65228    -1546.531    468.81152      292.647   -301.72322    36812.755 
  985600    303.70962   -1565.3854    498.90077    304.14057    89.540063    36812.755 
  985700    301.36889   -1515.0979    503.69283    348.65661     -396.905    36812.755 
  985800    301.53735   -1479.9405    489.50313    370.38451    55.447407    36812.755 
  985900    303.69751   -1454.5037    508.07085    424.13778   -415.49795    36812.755 
  986000    294.14402   -1451.1426    507.34442    383.65804   -490.91823    36812.755 
  986100    294.17054   -1474.4862    508.34319    361.43286   -53.284099    36812.755 
  986200    303.83088   -1525.6348    490.79691    336.33461    325.97935    36812.755 
  986300    300.40859    -1501.573    485.38339    339.53823    734.84216    36812.755 
  986400    303.35583   -1479.4993    503.56089    393.09021   -73.180341    36812.755 
  986500    289.51994   -1481.1207    499.77325    325.24054    85.202196    36812.755 
  986600    304.25369   -1484.5975    499.05242    387.53551     178.0154    36812.755 
  986700    314.70071   -1507.7072    522.63339    435.15366    387.98379    36812.755 
  986800     288.6305   -1502.6561    496.96309    296.88094    311.05566    36812.755 
  986900    305.53394    -1463.888    510.46723    425.43757   -157.36924    36812.755 
  987000    301.28041   -1495.0281    516.25007    380.88429    295.28656    36812.755 
  987100    313.60847   -1510.9359    476.18517    380.54748    138.78798    36812.755 
  987200    300.46833   -1475.6494    499.01355    379.36161    -292.5754    36812.755 
  987300    307.28258   -1519.0088    470.97198    338.71298   -527.99497    36812.755 
  987400     306.5787   -1515.9293     483.0468    350.69077    385.69899    36812.755 
  987500    296.50666   -1557.8758    489.48175    269.72461   -142.77983    36812.755 
  987600    295.30961   -1541.4021    484.77249    276.08683    175.04925    36812.755 
  987700    303.06228   -1566.6361    489.91156    290.97931   -116.01011    36812.755 
  987800    298.61387   -1525.9415    483.40458    305.09142    72.341138    36812.755 
  987900    302.58484   -1547.2681    480.40817    298.68923   -39.907956    36812.755 
  988000    308.35966   -1561.2473    482.87436    313.23771   -275.86604    36812.755 
  988100    303.38603   -1531.1624    452.59647    290.59896   -222.77474    36812.755 
  988200    296.05886   -1544.3117    463.38124    255.16727   -504.76616    36812.755 
  988300    308.73527   -1540.1528    487.91652    341.06944   -170.25216    36812.755 
  988400    298.15406   -1515.3901     461.3694    291.53262   -893.69729    36812.755 
  988500    293.42625    -1529.861    480.30359    274.65954   -1062.3196    36812.755 
  988600    301.95209   -1477.3362    469.40761    354.76508   -727.89854    36812.755 
  988700    301.58815   -1530.6713    491.20613    321.58599   -321.49566    36812.755 
  988800    307.20682   -1560.5485    490.76226    316.62171   -14.057419    36812.755 
  988900    305.51823   -1508.2867    485.90758    356.40826   -413.80458    36812.755 
  989000    301.81731   -1502.3741    467.75444    327.46571   -419.60197    36812.755 
  989100     299.9335   -1525.0751    460.31961    288.82834   -294.64279    36812.755 
  989200    300.35076   -1500.2572    494.59074    349.80044   -48.546299    36812.755 
  989300    302.37971    -1527.728    479.73997    316.63545   -244.77505    36812.755 
  989400    300.37384   -1570.4864    505.94476    291.02944   -121.37472    36812.755 
  989500    304.84199   -1564.3624    493.40984    304.78298    62.244599    36812.755 
  989600    299.27222   -1513.8761    473.71142    310.43483    -251.2541    36812.755 
  989700    301.92413   -1525.8806    500.59166     337.2785   -173.20467    36812.755 
  989800    308.07018   -1489.7218    478.56949    379.15191    -35.49675    36812.755 
  989900    305.88594   -1494.3855    501.06022    387.12158   -241.30581    36812.755 
  990000    296.55521    -1506.654    493.92247    325.60624   -473.44647    36812.755 
  990100    302.78912   -1549.4217     472.9923    290.04172   -692.08185    36812.755 
  990200    303.89461   -1525.3385    476.09025    322.21179   -845.59311    36812.755 
  990300    298.47478   -1511.3139    464.67503    300.36178   -638.01407    36812.755 
  990400    298.36171   -1519.9518    512.55839    339.09703   -636.75978    36812.755 
  990500    296.61498   -1557.4759    499.99657    281.12817   -579.90069    36812.755 
  990600     298.3187   -1481.9038    452.75632    317.14886   -424.77151    36812.755 
  990700    309.23275    -1460.346    524.29842    459.50326   -763.53024    36812.755 
  990800    295.13718   -1461.7496    481.81114    351.99988   -541.83361    36812.755 
  990900    294.03613   -1490.7456    496.76519     332.9889   -300.74723    36812.755 
  991000    295.86113   -1483.9898    489.40013     340.6158    382.22158    36812.755 
  991100    297.13074   -1542.4903    451.10158     249.5464   -201.88647    36812.755 
  991200    304.76587   -1498.9049    499.66878    376.15591   -92.833745    36812.755 
  991300    295.13223   -1450.4849    503.08629    384.51732    -270.0079    36812.755 
  991400    293.50054   -1464.9037    508.99139    368.63984    325.89633    36812.755 
  991500    305.72051   -1558.7536    486.66607    307.61281     -48.9941    36812.755 
  991600    300.20908   -1523.0073    495.64872    327.46892   -492.05108    36812.755 
  991700    295.08008    -1525.536     458.3348    264.47939    -870.7519    36812.755 
  991800    293.87566   -1526.3066    473.29363    273.23215   -849.50304    36812.755 
  991900    301.41318   -1526.4908    485.69264    319.46331   -209.24079    36812.755 
  992000    295.32812   -1486.3772    473.23498    319.65776    315.13247    36812.755 
  992100    302.25432   -1501.4944    495.50962    358.07276    165.07357    36812.755 
  992200    296.08417    -1504.664    469.28755    300.83559   -242.18199    36812.755 
  992300    291.25096   -1484.1464     499.1503    329.40384   -85.066015    36812.755 
  992400    294.90015   -1536.0087    491.94689    286.80675    377.93741    36812.755 
  992500    297.73829   -1550.6881    471.51993    264.50876    317.13084    36812.755 
  992600    298.52042   -1539.8657    504.12575    311.46665    119.88828    36812.755 
  992700    310.26972   -1512.1615    487.35765    375.42684   -98.115131    36812.755 
  992800    295.70062   -1540.9448    484.22492    277.76122   -242.73214    36812.755 
  992900     293.5323    -1511.511    488.73295    301.91753   -492.39398    36812.755 
  993000    295.58549   -1518.9868    521.72396    336.69869   -939.41807    36812.755 
  993100    292.62339   -1474.1915    497.14861     343.5508   -848.59178    36812.755 
  993200    303.93655   -1509.9488     493.8778    355.57831   -309.46867    36812.755 
  993300    296.06978   -1487.4436    488.85339    337.55682    -526.6115    36812.755 
  993400    291.53453   -1504.6943    522.16566    333.15107   -547.09801    36812.755 
  993500    299.59525   -1470.9737    508.43678    389.52041   -450.79181    36812.755 
  993600    300.91236   -1490.4405    487.06807    354.62896   -240.37146    36812.755 
  993700    307.65335   -1484.2644    491.04408    395.20272   -159.80374    36812.755 
  993800     308.0218   -1516.0265    500.24835    374.30774    -1.470414    36812.755 
  993900    288.82942   -1512.5279    511.75158    302.69535    659.51779    36812.755 
  994000    317.46684   -1507.0441    508.07493    433.74169   0.56668051    36812.755 
  994100    304.69347   -1431.9317    489.23766    432.37127    307.21835    36812.755 
  994200    299.17133   -1463.8195    478.96076     365.2854   -503.86161    36812.755 
  994300    301.83438   -1479.6415    481.20821    363.72912   -371.44214    36812.755 
  994400     295.1976   -1484.6427     487.5018    335.07004    54.938574    36812.755 
  994500    305.84263    -1473.186     519.6915    426.75686    359.33369    36812.755 
  994600    296.67031   -1463.2208    488.20552    363.84196    473.26646    36812.755 
  994700    300.71847   -1506.3494     476.8958    327.67274    7.3488875    36812.755 
  994800    294.07254   -1505.1898    510.48841    332.43227    161.66556    36812.755 
  994900    296.50336     -1535.37    502.08962    304.82341   -443.50795    36812.755 
  995000     294.1977   -1518.3143    473.41858    282.80277   -323.07681    36812.755 
  995100    294.35847   -1495.8777    492.55454     325.1008    20.939159    36812.755 
  995200    299.36031   -1502.3757    519.78674    368.40807   -133.85668    36812.755 
  995300    296.16159   -1517.9539    479.30212    297.90957   -701.62651    36812.755 
  995400    295.01727   -1514.6616    481.82828    298.56379    171.92255    36812.755 
  995500    300.62316   -1507.9556    497.30526    346.04584   -399.73947    36812.755 
  995600    300.54222   -1514.2004    489.97428    332.10477   -543.03492    36812.755 
  995700    307.63857   -1515.3503    497.97605    370.98211    49.689023    36812.755 
  995800    297.04877   -1505.3885    523.57028      358.747   -24.369969    36812.755 
  995900    295.71832   -1497.5147    525.99026    363.03652   -135.33819    36812.755 
  996000    305.99196   -1489.7519    473.46599     364.6394   -300.39783    36812.755 
  996100    300.13241   -1501.6659    481.05511    333.87074    133.25616    36812.755 
  996200    306.05748   -1508.5004    494.75424    367.47481    25.158765    36812.755 
  996300    307.59963    -1525.007     470.9177     334.0913    639.10373    36812.755 
  996400    301.90515   -1524.3576     481.8519    319.97609    184.52484    36812.755 
  996500    301.89959   -1526.1828    496.95382    333.22772    585.72782    36812.755 
  996600    299.33388    -1495.319     494.9469    350.50562    453.31269    36812.755 
  996700    300.50655   -1462.3573    507.41021    401.22288    103.59776    36812.755 
  996800    289.74548   -1508.1124    506.68835    306.18172    122.46669    36812.755 
  996900    307.27352   -1459.7336    490.96511    417.94044    468.23263    36812.755 
  997000    299.51279   -1512.9058    491.48422    330.26359    707.76875    36812.755 
  997100    313.50607   -1474.8075    510.32568    450.35428    384.34087    36812.755 
  997200    310.02257   -1516.7115    472.33387    354.73765    294.72377    36812.755 
  997300    303.93819   -1492.5986    494.83923    373.89745     234.1212    36812.755 
  997400    300.89927   -1511.4848    466.90955    313.36705   -633.70374    36812.755 
  997500    298.57579   -1491.4831    478.08166    334.05509    -743.8996    36812.755 
  997600    294.45185   -1467.1672     493.6901    355.36829   -1046.5108    36812.755 
  997700    291.18163   -1496.0535    501.43392    319.46748    22.846985    36812.755 
  997800    309.10084   -1504.0065    515.46503    406.41403   -241.02657    36812.755 
  997900    297.96661      -1485.7     465.6183    324.62564     47.45807    36812.755 
  998000    290.18372   -1487.4572    471.13848    293.26484    130.93707    36812.755 
  998100     299.9525   -1542.5248    482.56034    293.70511    968.33593    36812.755 
  998200    302.80473   -1507.1519     484.3233    343.71291    429.82729    36812.755 
  998300    290.71476    -1505.197    485.64322    292.42632    325.84265    36812.755 
  998400    294.90483   -1537.3085    468.90788    262.48905   -109.84496    36812.755 
  998500    307.31863   -1513.3896    489.33839    362.86132   -837.34719    36812.755 
  998600    311.27827    -1469.513    476.47722    411.74635   -398.37014    36812.755 
  998700    304.60589   -1517.3671    462.91212    320.21505   -69.148617    36812.755 
  998800    297.74781   -1505.7168    481.38176    319.38488    76.585769    36812.755 
  998900    295.74065   -1448.9063    512.20707    397.96251   -382.09319    36812.755 
  999000    299.67479   -1469.2562    474.87732    358.03741    102.90871    36812.755 
  999100    305.15151   -1447.8258    472.18619    401.49278    205.17091    36812.755 
  999200    293.17281   -1460.8605    507.34495    369.55761    514.22421    36812.755 
  999300    297.80979   -1477.5952    484.93375    351.33815    338.54086    36812.755 
  999400    293.83742   -1453.9389    518.03528    390.16887   -418.98263    36812.755 
  999500    302.47149   -1467.2697    502.15658    399.92446   -353.48315    36812.755 
  999600    302.92164   -1482.1222     490.4215    375.36847   -107.55664    36812.755 
  999700    302.14924   -1472.2902     489.9427    381.23578    103.88639    36812.755 
  999800    300.98943   -1486.0135    465.95677    338.29245    456.44838    36812.755 
  999900    301.23241   -1486.4186    476.09004    349.11714    365.80794    36812.755 
 1000000    309.11179   -1508.5638    520.78681    407.22795      528.775    36812.755 
 1000100    297.21274   -1486.8401    488.33793    342.80299    646.03199    36812.755 
 1000200    303.00146   -1507.2385    487.03889    347.22977    653.10796    36812.755 
 1000300    293.03635   -1490.2408    467.65423    299.87076    -558.1346    36812.755 
 1000400    295.95317   -1468.3661    484.95093    352.20559   -87.072986    36812.755 
 1000500    295.30582   -1478.2029    474.94917     329.4456   -91.601422    36812.755 
 1000600    305.81908    -1516.143    478.76999    342.77211   -393.36997    36812.755 
 1000700    297.08376   -1474.1394     496.0158     362.5995    -222.7198    36812.755 
 1000800    298.52389   -1510.0359    487.79331    324.97979    346.90295    36812.755 
 1000900    304.64971   -1508.2076    486.20835    352.86861    34.540345    36812.755 
 1001000    305.99889   -1468.5726    477.42783    389.81185   -574.12864    36812.755 
 1001100    303.82549   -1475.4267     476.8581    372.57953   -246.24338    36812.755 
 1001200    305.00654   -1558.0134    474.58691    293.05175   -601.21071    36812.755 
 1001300    297.02922   -1546.6088    478.94114    272.80932   -570.13853    36812.755 
 1001400    301.69369   -1534.1371    480.28536     307.6757   -704.08742    36812.755 
 1001500    306.82368   -1465.7252     485.0911     404.0447    57.701519    36812.755 
 1001600    305.39417   -1520.7807    483.89564    341.34245   -250.19515    36812.755 
 1001700    297.75264   -1473.0762    503.07812    373.74365   -259.48602    36812.755 
 1001800    297.97893   -1457.6071    480.54265    367.69853   -138.09684    36812.755 
 1001900    308.41284   -1512.7473    481.02929    360.13255   -114.00982    36812.755 
 1002000    304.01986   -1503.3954    508.38295    377.01289    285.65886    36812.755 
 1002100    305.08776   -1498.7877    503.64593    381.70296   -208.48564    36812.755 
 1002200    291.80993   -1475.0021    490.58459    332.50505    331.16708    36812.755 
 1002300    296.06672   -1521.8313     478.4972    292.79915    373.57665    36812.755 
 1002400    290.40912   -1528.7674    526.64023    308.47365    407.40211    36812.755 
 1002500    297.36372   -1512.4253    484.95412    314.51533    144.77593    36812.755 
 1002600    300.89449   -1504.5373    514.13803     367.5214    191.49849    36812.755 
 1002700    299.47711   -1492.1219    464.83828    324.24048    450.35668    36812.755 
 1002800    302.95617    -1491.989     516.8604    392.09637    -170.1057    36812.755 
 1002900    292.50238   -1502.1812    496.58285    314.44915   -210.92247    36812.755 
 1003000    292.99401   -1484.0884    486.44663    324.62452   -116.54041    36812.755 
 1003100    302.99966   -1502.9107    509.74118    374.25172   -35.319216    36812.755 
 1003200    308.86993   -1507.0191    498.02544    384.91976     617.9001    36812.755 
 1003300    301.64786   -1539.8758    509.54125    330.98611    162.12904    36812.755 
 1003400    303.49181   -1507.6127    486.58619    348.61577   -143.58359    36812.755 
 1003500    292.44038   -1526.7139    475.00866    268.06256   -222.31769    36812.755 
 1003600    293.72958   -1505.7331    489.61344    309.46619     208.5008    36812.755 
 1003700    286.48012   -1493.5583    503.27697    302.58813   -147.59399    36812.755 
 1003800    301.94018   -1482.9239    501.19422    380.91019    583.71349    36812.755 
 1003900     302.0739   -1469.4955    475.41164     369.1595    509.45023    36812.755 
 1004000    291.19701   -1491.1286    543.84786    366.87577    396.30342    36812.755 
 1004100    308.15132   -1485.4872    492.99226    398.17548    1012.2163    36812.755 
 1004200    309.60486   -1487.7413    501.07862    410.56752    750.58217    36812.755 
 1004300     305.9476     -1483.47    499.74592    397.00111    374.22472    36812.755 
 1004400    299.89387     -1486.37    498.50377    365.53875    462.93481    36812.755 
 1004500    305.93569   -1466.7735    541.91687    455.81475    51.412785    36812.755 
 1004600    302.21439   -1534.1876    484.60399    314.29375   -302.21512    36812.755 
 1004700    309.11117   -1532.6426    494.15871    356.51824   -84.830154    36812.755 
 1004800    295.96402   -1492.6143    479.36284    322.41827    16.444962    36812.755 
 1004900    302.45117   -1547.1709     488.0707    305.84568    -248.8262    36812.755 
 1005000    300.98555   -1526.7489    489.39267    320.97545    -591.4204    36812.755 
 1005100    295.27258    -1561.971    502.45083    273.02914    -499.2237    36812.755 
 1005195    300.21906   -1501.4451    510.33655    363.76403   -95.772868    36812.755 
Loop time of 596.917 on 32 procs for 1000000 steps with 1515 atoms

Performance: 144.744 ns/day, 0.166 hours/ns, 1675.275 timesteps/s
100.0% CPU use with 32 MPI tasks x no OpenMP threads

MPI task timing breakdown:
Section |  min time  |  avg time  |  max time  |%varavg| %total
---------------------------------------------------------------
Pair    | 236.68     | 276.94     | 311.81     | 122.4 | 46.40
Bond    | 1.3679     | 1.5728     | 1.7892     |   7.8 |  0.26
Neigh   | 38.749     | 38.836     | 38.91      |   1.0 |  6.51
Comm    | 231.94     | 266.66     | 306.64     | 124.2 | 44.67
Output  | 0.38125    | 0.40088    | 0.90771    |  14.4 |  0.07
Modify  | 9.008      | 9.3539     | 9.8331     |   7.1 |  1.57
Other   |            | 3.145      |            |       |  0.53

Nlocal:        47.3438 ave          74 max          18 min
Histogram: 1 2 2 3 7 4 6 3 3 1
Nghost:        2016.34 ave        2096 max        1930 min
Histogram: 1 3 1 5 6 3 4 5 2 2
Neighs:        5332.41 ave        9073 max        1846 min
Histogram: 2 1 5 3 8 4 1 5 1 2

Total # of neighbors = 170637
Ave neighs/atom = 112.63168
Ave special neighs/atom = 2.0303630
Neighbor list builds = 49693
Dangerous builds = 0

# Output the system volume
variable v equal vol
print 'The system volume is $v'
The system volume is 36812.7551308964

# Outputs
variable A equal xhi-xlo
variable B equal yhi-ylo
variable C equal zhi-zlo
variable D equal xy
variable E equal xz
variable F equal yz
print 'Lattice vectors'
Lattice vectors
print '$A 0 0'
33.2659124863126 0 0
print '$D $B 0'
0 33.2659124863126 0
print '$E $F $C'
0 0 33.2659124863126
Total wall time: 0:10:01
