LAMMPS data file
 1517 atoms
 1016 bonds
 527 angles
 32 dihedrals
 3 impropers
 7 atom types
 7 bond types
 4 angle types
 3 dihedral types
 1 improper types
 0 15 xlo xhi
 0 15 ylo yhi
 0 15 zlo zhi
 0 0 0 xy xz yz

# Atom types
#
# 1 C_3
# 2 O_2
# 3 C_2
# 4 N_2
# 5 H_
# 6 H__HB
# 7 O_3

# Bond Coeffs
#
# 1 C_3*C_3
# 2 C_3*H_
# 3 C_3*N_2
# 4 O_2*C_2
# 5 C_2*N_2
# 6 N_2*H__HB
# 7 O_3*H__HB

# Angle Coeffs
#
# 1 C_3
# 2 C_2
# 3 N_2
# 4 O_3

# Dihedral Coeffs
#
# 1 A1
# 2 B1
# 3 C1

# Inversion Coeffs
#
# 1 1

 Masses

 1 12.01
 2 16
 3 12.01
 4 14.01
 5 1.01
 6 1.01
 7 16

 Atoms # full

1 1 1 0 10.9825453022699 5.96667239090046 8.00295217641978
2 1 1 0 13.2626608540699 5.97682336513718 9.22335137265089
3 1 2 0 15.2566677067846 6.27603660319862 11.1829176000327
4 1 3 0 15.5892879137257 5.87879483861013 10.0407871397082
5 1 4 0 16.8632339842455 5.56440818668676 9.70449653249531
6 1 4 0 14.659152134747 5.71570695028943 9.0728769200355
7 1 1 0 12.5065597262041 5.68402684161387 7.90308942506144
8 1 5 0 10.8173711881026 7.03567618956358 8.16956046088632
9 1 5 0 10.6203006309167 5.43821627947565 8.89021056402397
10 1 5 0 13.1185829445064 7.02535367110726 9.49899312100933
11 1 5 0 12.8630097441924 5.34425586938599 10.0209245440231
12 1 6 0 16.9724282898762 5.19919440954468 8.81164415914155
13 1 6 0 14.9651691600268 5.39630703620874 8.20888034300285
14 1 5 0 12.9430428887936 6.30338068851904 7.11661847766437
15 1 5 0 12.6536233999226 4.63428733370665 7.63371130529084
16 1 5 0 10.208588791363 5.50300877945639 6.80412289973046
17 1 6 0 18.0053209378995 5.65176479019762 10.4373751541758
18 2 6 0 9.61740882994607 15.2867748569138 10.3247163374908
19 2 7 0 10.5774088299461 15.2867748569138 10.3247163374908
20 2 6 0 10.8174088299461 14.3567748569138 10.3247163374908
21 3 6 0 2.48242822053842 6.8292653122358 0.203705728054047
22 3 7 0 3.44242822053842 6.8292653122358 0.203705728054047
23 3 6 0 3.68242822053842 5.8992653122358 0.203705728054047
24 4 6 0 4.2972349694185 4.74800376728177 10.614692454692
25 4 7 0 5.2572349694185 4.74800376728177 10.614692454692
26 4 6 0 5.4972349694185 3.81800376728177 10.614692454692
27 5 6 0 7.15073139566928 6.06117002590559 11.772161090048
28 5 7 0 8.11073139566928 6.06117002590559 11.772161090048
29 5 6 0 8.35073139566928 5.13117002590559 11.772161090048
30 6 6 0 11.7843772766367 4.90528353414498 0.90726654860191
31 6 7 0 12.7443772766367 4.90528353414498 0.90726654860191
32 6 6 0 12.9843772766367 3.97528353414498 0.90726654860191
33 7 6 0 13.9320768280607 10.7877006793302 11.4479799591936
34 7 7 0 14.8920768280607 10.7877006793302 11.4479799591936
35 7 6 0 15.1320768280607 9.85770067933016 11.4479799591936
36 8 6 0 11.409950390663 9.02225206297822 7.38125663017854
37 8 7 0 12.369950390663 9.02225206297822 7.38125663017854
38 8 6 0 12.609950390663 8.09225206297822 7.38125663017854
39 9 6 0 2.12346526837908 9.47778958518989 0.503068749094382
40 9 7 0 3.08346526837908 9.47778958518989 0.503068749094382
41 9 6 0 3.32346526837908 8.54778958518989 0.503068749094382
42 10 6 0 12.717489818316 9.87546872970648 5.96384827047586
43 10 7 0 13.677489818316 9.87546872970648 5.96384827047586
44 10 6 0 13.917489818316 8.94546872970648 5.96384827047586
45 11 6 0 1.8256767284777 1.55931178172119 10.7203107106034
46 11 7 0 2.7856767284777 1.55931178172119 10.7203107106034
47 11 6 0 3.0256767284777 0.62931178172119 10.7203107106034
48 12 6 0 13.5669499011431 1.20118427131325 14.8844938538969
49 12 7 0 14.5269499011431 1.20118427131325 14.8844938538969
50 12 6 0 14.7669499011431 0.27118427131325 14.8844938538969
51 13 6 0 7.02967978941277 6.02021089912392 14.5467474125326
52 13 7 0 7.98967978941277 6.02021089912392 14.5467474125326
53 13 6 0 8.22967978941277 5.09021089912392 14.5467474125326
54 14 6 0 12.0835560739227 2.83321933279745 9.39935623202473
55 14 7 0 13.0435560739227 2.83321933279745 9.39935623202473
56 14 6 0 13.2835560739227 1.90321933279745 9.39935623202473
57 15 6 0 1.23733940578066 1.94233104743995 2.01642988831736
58 15 7 0 2.19733940578066 1.94233104743995 2.01642988831736
59 15 6 0 2.43733940578066 1.01233104743995 2.01642988831736
60 16 6 0 12.1789653778262 10.1605317524541 5.47289261477999
61 16 7 0 13.1389653778262 10.1605317524541 5.47289261477999
62 16 6 0 13.3789653778262 9.23053175245412 5.47289261477999
63 17 6 0 8.05463939599693 5.43400905136019 14.6215915633366
64 17 7 0 9.01463939599693 5.43400905136019 14.6215915633366
65 17 6 0 9.25463939599693 4.50400905136019 14.6215915633366
66 18 6 0 9.2685386461392 9.59148655337282 6.76857101731002
67 18 7 0 10.2285386461392 9.59148655337282 6.76857101731002
68 18 6 0 10.4685386461392 8.66148655337282 6.76857101731002
69 19 6 0 6.14234271386638 1.04850653599948 12.4439892824739
70 19 7 0 7.10234271386638 1.04850653599948 12.4439892824739
71 19 6 0 7.34234271386638 0.118506535999477 12.4439892824739
72 20 6 0 1.78175632769242 4.77756385848857 1.46443185280077
73 20 7 0 2.74175632769242 4.77756385848857 1.46443185280077
74 20 6 0 2.98175632769242 3.84756385848857 1.46443185280077
75 21 6 0 6.19805668640882 6.57200626720674 1.89778976608068
76 21 7 0 7.15805668640882 6.57200626720674 1.89778976608068
77 21 6 0 7.39805668640882 5.64200626720674 1.89778976608068
78 22 6 0 6.48935181481764 7.09078800439835 6.49401297443546
79 22 7 0 7.44935181481764 7.09078800439835 6.49401297443546
80 22 6 0 7.68935181481764 6.16078800439835 6.49401297443546
81 23 6 0 12.9280796523392 12.7168723781966 5.52985831280239
82 23 7 0 13.8880796523392 12.7168723781966 5.52985831280239
83 23 6 0 14.1280796523392 11.7868723781966 5.52985831280239
84 24 6 0 7.94953415097669 7.94502608286217 11.4235608908348
85 24 7 0 8.90953415097669 7.94502608286217 11.4235608908348
86 24 6 0 9.14953415097669 7.01502608286217 11.4235608908348
87 25 6 0 9.56048036852851 2.45098721160553 4.28223805502057
88 25 7 0 10.5204803685285 2.45098721160553 4.28223805502057
89 25 6 0 10.7604803685285 1.52098721160553 4.28223805502057
90 26 6 0 10.7917721201386 5.39103544940241 12.0722071349155
91 26 7 0 11.7517721201386 5.39103544940241 12.0722071349155
92 26 6 0 11.9917721201386 4.46103544940241 12.0722071349155
93 27 6 0 2.91170698634349 10.3612151687872 8.54007991380058
94 27 7 0 3.87170698634349 10.3612151687872 8.54007991380058
95 27 6 0 4.11170698634349 9.43121516878717 8.54007991380058
96 28 6 0 9.84794200558215 6.76544929429889 3.2400412845891
97 28 7 0 10.8079420055822 6.76544929429889 3.2400412845891
98 28 6 0 11.0479420055822 5.83544929429889 3.2400412845891
99 29 6 0 0.630140031427145 6.95735423168167 14.7143914690241
100 29 7 0 1.59014003142714 6.95735423168167 14.7143914690241
101 29 6 0 1.83014003142714 6.02735423168167 14.7143914690241
102 30 6 0 13.6463373822346 8.95000225788914 7.18346406938508
103 30 7 0 14.6063373822346 8.95000225788914 7.18346406938508
104 30 6 0 14.8463373822346 8.02000225788914 7.18346406938508
105 31 6 0 11.505172285689 6.74544525024481 10.0877710059285
106 31 7 0 12.465172285689 6.74544525024481 10.0877710059285
107 31 6 0 12.705172285689 5.81544525024481 10.0877710059285
108 32 6 0 2.98821639429778 4.05572145403363 1.31541829439811
109 32 7 0 3.94821639429778 4.05572145403363 1.31541829439811
110 32 6 0 4.18821639429778 3.12572145403363 1.31541829439811
111 33 6 0 14.2441284963582 2.94330298825167 2.1822756563779
112 33 7 0 15.2041284963582 2.94330298825167 2.1822756563779
113 33 6 0 15.4441284963582 2.01330298825167 2.1822756563779
114 34 6 0 2.38676605207846 6.40087596065365 4.57168665365316
115 34 7 0 3.34676605207846 6.40087596065365 4.57168665365316
116 34 6 0 3.58676605207846 5.47087596065365 4.57168665365316
117 35 6 0 11.0632652642392 5.99897773278877 4.998838766478
118 35 7 0 12.0232652642392 5.99897773278877 4.998838766478
119 35 6 0 12.2632652642392 5.06897773278877 4.998838766478
120 36 6 0 3.05064539934509 6.00944684160873 1.86535261105746
121 36 7 0 4.01064539934509 6.00944684160873 1.86535261105746
122 36 6 0 4.25064539934509 5.07944684160873 1.86535261105746
123 37 6 0 0.396182844853029 5.66313251311891 4.01148959412239
124 37 7 0 1.35618284485303 5.66313251311891 4.01148959412239
125 37 6 0 1.59618284485303 4.73313251311891 4.01148959412239
126 38 6 0 5.71632188206539 11.0440560609009 12.8867923642974
127 38 7 0 6.67632188206539 11.0440560609009 12.8867923642974
128 38 6 0 6.91632188206539 10.1140560609009 12.8867923642974
129 39 6 0 7.88574796563014 3.41979668283835 5.5949612671975
130 39 7 0 8.84574796563014 3.41979668283835 5.5949612671975
131 39 6 0 9.08574796563014 2.48979668283835 5.5949612671975
132 40 6 0 8.11208478335291 5.81993605516851 6.94306286866777
133 40 7 0 9.07208478335291 5.81993605516851 6.94306286866777
134 40 6 0 9.31208478335291 4.88993605516851 6.94306286866777
135 41 6 0 3.69714681568556 13.0798063687421 9.49884134111926
136 41 7 0 4.65714681568556 13.0798063687421 9.49884134111926
137 41 6 0 4.89714681568556 12.1498063687421 9.49884134111926
138 42 6 0 9.75851662267931 1.8665173199866 11.0620293428656
139 42 7 0 10.7185166226793 1.8665173199866 11.0620293428656
140 42 6 0 10.9585166226793 0.936517319986597 11.0620293428656
141 43 6 0 8.72762598141096 10.2425541337021 7.14851318509318
142 43 7 0 9.68762598141097 10.2425541337021 7.14851318509318
143 43 6 0 9.92762598141097 9.31255413370207 7.14851318509318
144 44 6 0 12.6564877170324 13.1890589130949 5.14729801216163
145 44 7 0 13.6164877170324 13.1890589130949 5.14729801216163
146 44 6 0 13.8564877170324 12.2590589130949 5.14729801216163
147 45 6 0 1.27319042265415 5.55769726209342 12.7348633110523
148 45 7 0 2.23319042265415 5.55769726209342 12.7348633110523
149 45 6 0 2.47319042265415 4.62769726209342 12.7348633110523
150 46 6 0 -0.535626356285065 5.10147015023045 8.75545793445781
151 46 7 0 0.424373643714935 5.10147015023045 8.75545793445781
152 46 6 0 0.664373643714935 4.17147015023045 8.75545793445781
153 47 6 0 2.34626858306117 2.7993968377728 2.16830944642425
154 47 7 0 3.30626858306117 2.7993968377728 2.16830944642425
155 47 6 0 3.54626858306117 1.8693968377728 2.16830944642425
156 48 6 0 0.305228047510609 6.55224188621156 2.00533907627687
157 48 7 0 1.26522804751061 6.55224188621156 2.00533907627687
158 48 6 0 1.50522804751061 5.62224188621156 2.00533907627687
159 49 6 0 8.58574944592081 4.86788003164343 13.0609806335997
160 49 7 0 9.54574944592081 4.86788003164343 13.0609806335997
161 49 6 0 9.78574944592081 3.93788003164344 13.0609806335997
162 50 6 0 0.0305320699419827 0.818626349037513 12.0592275902163
163 50 7 0 0.990532069941983 0.818626349037513 12.0592275902163
164 50 6 0 1.23053206994198 -0.111373650962487 12.0592275902163
165 51 6 0 9.78561607349664 1.87249973573722 14.3727516161744
166 51 7 0 10.7456160734966 1.87249973573722 14.3727516161744
167 51 6 0 10.9856160734966 0.942499735737219 14.3727516161744
168 52 6 0 6.0748326759506 14.9627832618449 5.73751693591475
169 52 7 0 7.0348326759506 14.9627832618449 5.73751693591475
170 52 6 0 7.2748326759506 14.0327832618449 5.73751693591475
171 53 6 0 11.2123206902482 6.39591599739157 14.0809966425877
172 53 7 0 12.1723206902482 6.39591599739157 14.0809966425877
173 53 6 0 12.4123206902482 5.46591599739157 14.0809966425877
174 54 6 0 9.53535358465277 2.2506984501984 9.03054660069756
175 54 7 0 10.4953535846528 2.2506984501984 9.03054660069756
176 54 6 0 10.7353535846528 1.3206984501984 9.03054660069756
177 55 6 0 13.3578677933849 2.11375598487444 10.4117685277015
178 55 7 0 14.3178677933849 2.11375598487444 10.4117685277015
179 55 6 0 14.5578677933849 1.18375598487444 10.4117685277015
180 56 6 0 13.9371944863535 10.7841825710516 12.371673937887
181 56 7 0 14.8971944863535 10.7841825710516 12.371673937887
182 56 6 0 15.1371944863535 9.85418257105164 12.371673937887
183 57 6 0 7.96094722623937 7.8019651215896 14.9724544712808
184 57 7 0 8.92094722623937 7.8019651215896 14.9724544712808
185 57 6 0 9.16094722623937 6.8719651215896 14.9724544712808
186 58 6 0 -0.718684785095975 13.8076738737896 4.96629283530638
187 58 7 0 0.241315214904025 13.8076738737896 4.96629283530638
188 58 6 0 0.481315214904025 12.8776738737896 4.96629283530638
189 59 6 0 3.59646310491487 13.2104057135899 11.6294289752841
190 59 7 0 4.55646310491487 13.2104057135899 11.6294289752841
191 59 6 0 4.79646310491487 12.2804057135899 11.6294289752841
192 60 6 0 4.46656358239241 4.99978228396736 4.19845305033959
193 60 7 0 5.42656358239241 4.99978228396736 4.19845305033959
194 60 6 0 5.66656358239241 4.06978228396736 4.19845305033959
195 61 6 0 3.62095003874972 6.3713315331284 8.69550633011386
196 61 7 0 4.58095003874972 6.3713315331284 8.69550633011386
197 61 6 0 4.82095003874973 5.4413315331284 8.69550633011386
198 62 6 0 8.52326886422932 1.76912313950248 3.14079109928571
199 62 7 0 9.48326886422932 1.76912313950248 3.14079109928571
200 62 6 0 9.72326886422932 0.839123139502481 3.14079109928571
201 63 6 0 2.63000312305056 2.05514782847837 14.9254093319178
202 63 7 0 3.59000312305056 2.05514782847837 14.9254093319178
203 63 6 0 3.83000312305056 1.12514782847837 14.9254093319178
204 64 6 0 2.32905216791667 13.7561894445121 2.29763655806892
205 64 7 0 3.28905216791667 13.7561894445121 2.29763655806892
206 64 6 0 3.52905216791667 12.8261894445121 2.29763655806892
207 65 6 0 12.9173291700147 0.327395511968061 10.1811736018863
208 65 7 0 13.8773291700147 0.327395511968061 10.1811736018863
209 65 6 0 14.1173291700147 -0.602604488031939 10.1811736018863
210 66 6 0 0.123533050501719 6.92485003889538 2.45674823527224
211 66 7 0 1.08353305050172 6.92485003889538 2.45674823527224
212 66 6 0 1.32353305050172 5.99485003889538 2.45674823527224
213 67 6 0 14.2397673956305 12.2780167641491 6.12270478508435
214 67 7 0 15.1997673956305 12.2780167641491 6.12270478508435
215 67 6 0 15.4397673956305 11.3480167641491 6.12270478508435
216 68 6 0 7.5455611820519 12.9024424477853 13.8215089088771
217 68 7 0 8.5055611820519 12.9024424477853 13.8215089088771
218 68 6 0 8.7455611820519 11.9724424477853 13.8215089088771
219 69 6 0 0.0733474285528064 4.73060746252537 3.25858951779082
220 69 7 0 1.03334742855281 4.73060746252537 3.25858951779082
221 69 6 0 1.27334742855281 3.80060746252537 3.25858951779082
222 70 6 0 1.29275725616142 2.98682570265606 9.06215679715388
223 70 7 0 2.25275725616142 2.98682570265606 9.06215679715388
224 70 6 0 2.49275725616142 2.05682570265606 9.06215679715388
225 71 6 0 -0.182633893126622 7.38463196129538 7.62774007162079
226 71 7 0 0.777366106873378 7.38463196129538 7.62774007162079
227 71 6 0 1.01736610687338 6.45463196129538 7.62774007162079
228 72 6 0 11.3730229418445 3.5149426168669 9.85178149770945
229 72 7 0 12.3330229418445 3.5149426168669 9.85178149770945
230 72 6 0 12.5730229418445 2.5849426168669 9.85178149770945
231 73 6 0 6.98831111585721 4.11213924101554 8.2006820908282
232 73 7 0 7.94831111585721 4.11213924101554 8.2006820908282
233 73 6 0 8.18831111585721 3.18213924101554 8.2006820908282
234 74 6 0 11.1592308610864 6.31560685270466 1.92090844153427
235 74 7 0 12.1192308610864 6.31560685270466 1.92090844153427
236 74 6 0 12.3592308610864 5.38560685270466 1.92090844153427
237 75 6 0 9.53542399962433 10.5508723521512 8.44768625800498
238 75 7 0 10.4954239996243 10.5508723521512 8.44768625800498
239 75 6 0 10.7354239996243 9.6208723521512 8.44768625800498
240 76 6 0 2.96132005096413 2.14091572602279 9.82108277385123
241 76 7 0 3.92132005096413 2.14091572602279 9.82108277385123
242 76 6 0 4.16132005096413 1.21091572602279 9.82108277385123
243 77 6 0 0.353627950390801 10.490354466429 3.03965481813066
244 77 7 0 1.3136279503908 10.490354466429 3.03965481813066
245 77 6 0 1.5536279503908 9.56035446642898 3.03965481813066
246 78 6 0 12.4674019664247 7.83350767957978 11.1429524165578
247 78 7 0 13.4274019664247 7.83350767957978 11.1429524165578
248 78 6 0 13.6674019664247 6.90350767957978 11.1429524165578
249 79 6 0 6.14764642945491 7.1512474473007 9.30108099477366
250 79 7 0 7.10764642945491 7.1512474473007 9.30108099477366
251 79 6 0 7.34764642945491 6.2212474473007 9.30108099477366
252 80 6 0 12.5589891608991 2.826429645475 14.0294265467674
253 80 7 0 13.5189891608991 2.826429645475 14.0294265467674
254 80 6 0 13.7589891608991 1.896429645475 14.0294265467674
255 81 6 0 5.97109577662312 10.5819000377692 0.168942591408268
256 81 7 0 6.93109577662312 10.5819000377692 0.168942591408268
257 81 6 0 7.17109577662312 9.65190003776923 0.168942591408268
258 82 6 0 0.0266385047882796 13.977918597348 6.12401540041901
259 82 7 0 0.98663850478828 13.977918597348 6.12401540041901
260 82 6 0 1.22663850478828 13.047918597348 6.12401540041901
261 83 6 0 9.89568443896249 4.90666817914695 8.44504581182264
262 83 7 0 10.8556844389625 4.90666817914695 8.44504581182264
263 83 6 0 11.0956844389625 3.97666817914695 8.44504581182264
264 84 6 0 10.7331043579336 10.0342505231407 14.1023301682435
265 84 7 0 11.6931043579336 10.0342505231407 14.1023301682435
266 84 6 0 11.9331043579336 9.10425052314065 14.1023301682435
267 85 6 0 6.09437531718984 8.3233159540128 11.1770061822608
268 85 7 0 7.05437531718984 8.3233159540128 11.1770061822608
269 85 6 0 7.29437531718984 7.3933159540128 11.1770061822608
270 86 6 0 7.0828390975669 15.089942111345 12.1316295966972
271 86 7 0 8.0428390975669 15.089942111345 12.1316295966972
272 86 6 0 8.2828390975669 14.159942111345 12.1316295966972
273 87 6 0 2.12173640655354 8.72711124405265 7.9672920727171
274 87 7 0 3.08173640655354 8.72711124405265 7.9672920727171
275 87 6 0 3.32173640655354 7.79711124405265 7.9672920727171
276 88 6 0 1.26821204714477 9.29496380657889 4.42437622114085
277 88 7 0 2.22821204714477 9.29496380657889 4.42437622114085
278 88 6 0 2.46821204714477 8.36496380657889 4.42437622114085
279 89 6 0 3.07249365418218 12.9211925311852 5.63335852115415
280 89 7 0 4.03249365418218 12.9211925311852 5.63335852115415
281 89 6 0 4.27249365418218 11.9911925311852 5.63335852115415
282 90 6 0 4.79660512690432 5.56114090414718 13.2603632134851
283 90 7 0 5.75660512690432 5.56114090414718 13.2603632134851
284 90 6 0 5.99660512690432 4.63114090414718 13.2603632134851
285 91 6 0 6.72329533190466 11.5550098549016 12.8592317795847
286 91 7 0 7.68329533190466 11.5550098549016 12.8592317795847
287 91 6 0 7.92329533190467 10.6250098549016 12.8592317795847
288 92 6 0 9.76365721246228 13.9362947751675 10.0331150076818
289 92 7 0 10.7236572124623 13.9362947751675 10.0331150076818
290 92 6 0 10.9636572124623 13.0062947751675 10.0331150076818
291 93 6 0 9.73329461339861 9.36770314624533 3.60203207354061
292 93 7 0 10.6932946133986 9.36770314624533 3.60203207354061
293 93 6 0 10.9332946133986 8.43770314624533 3.60203207354061
294 94 6 0 10.9294853014592 11.0007455413602 12.5535807420965
295 94 7 0 11.8894853014592 11.0007455413602 12.5535807420965
296 94 6 0 12.1294853014592 10.0707455413602 12.5535807420965
297 95 6 0 6.84281501613557 11.3889845918771 6.5073951613158
298 95 7 0 7.80281501613557 11.3889845918771 6.5073951613158
299 95 6 0 8.04281501613557 10.4589845918771 6.5073951613158
300 96 6 0 11.2302168882173 2.29371089529246 9.16880778037012
301 96 7 0 12.1902168882173 2.29371089529246 9.16880778037012
302 96 6 0 12.4302168882173 1.36371089529246 9.16880778037012
303 97 6 0 13.8863920366578 10.9669278519601 13.1353602244053
304 97 7 0 14.8463920366578 10.9669278519601 13.1353602244053
305 97 6 0 15.0863920366578 10.0369278519601 13.1353602244053
306 98 6 0 4.90714235857129 7.62785873300396 8.08630920597352
307 98 7 0 5.86714235857129 7.62785873300396 8.08630920597352
308 98 6 0 6.10714235857129 6.69785873300396 8.08630920597352
309 99 6 0 3.05709910855629 5.19626654841937 6.62241078447551
310 99 7 0 4.01709910855629 5.19626654841937 6.62241078447551
311 99 6 0 4.25709910855629 4.26626654841937 6.62241078447551
312 100 6 0 -0.56939357615076 11.0193637110665 6.61322260508314
313 100 7 0 0.39060642384924 11.0193637110665 6.61322260508314
314 100 6 0 0.63060642384924 10.0893637110665 6.61322260508314
315 101 6 0 6.76531622579321 11.2886904719658 6.83553790091537
316 101 7 0 7.72531622579321 11.2886904719658 6.83553790091537
317 101 6 0 7.96531622579321 10.3586904719658 6.83553790091537
318 102 6 0 9.33373164312914 6.21880482573993 9.33018365758471
319 102 7 0 10.2937316431291 6.21880482573993 9.33018365758471
320 102 6 0 10.5337316431291 5.28880482573993 9.33018365758471
321 103 6 0 5.1977805588115 12.1102610572148 10.3890656086151
322 103 7 0 6.1577805588115 12.1102610572148 10.3890656086151
323 103 6 0 6.3977805588115 11.1802610572148 10.3890656086151
324 104 6 0 5.13641296114773 8.99385739857331 5.85808451869525
325 104 7 0 6.09641296114773 8.99385739857331 5.85808451869525
326 104 6 0 6.33641296114773 8.06385739857331 5.85808451869525
327 105 6 0 12.4302740399446 5.92628392082639 14.1616547922604
328 105 7 0 13.3902740399446 5.92628392082639 14.1616547922604
329 105 6 0 13.6302740399446 4.99628392082639 14.1616547922604
330 106 6 0 6.37842259646393 2.37528640235774 7.35668307286687
331 106 7 0 7.33842259646393 2.37528640235774 7.35668307286687
332 106 6 0 7.57842259646393 1.44528640235774 7.35668307286687
333 107 6 0 8.87037299850024 10.953816589145 2.50563643989153
334 107 7 0 9.83037299850024 10.953816589145 2.50563643989153
335 107 6 0 10.0703729985002 10.023816589145 2.50563643989153
336 108 6 0 4.26153213062324 4.49123461306095 12.5002575363033
337 108 7 0 5.22153213062324 4.49123461306095 12.5002575363033
338 108 6 0 5.46153213062324 3.56123461306095 12.5002575363033
339 109 6 0 1.67598021609709 0.860233945250511 10.9007105219644
340 109 7 0 2.63598021609709 0.860233945250511 10.9007105219644
341 109 6 0 2.87598021609709 -0.0697660547494889 10.9007105219644
342 110 6 0 2.84086165294983 3.70186585042626 0.860534455860034
343 110 7 0 3.80086165294983 3.70186585042626 0.860534455860034
344 110 6 0 4.04086165294983 2.77186585042626 0.860534455860034
345 111 6 0 2.01862507659942 14.7970326214004 1.72457273933105
346 111 7 0 2.97862507659942 14.7970326214004 1.72457273933105
347 111 6 0 3.21862507659942 13.8670326214004 1.72457273933105
348 112 6 0 8.52134835368022 7.35752223566174 4.4300368137192
349 112 7 0 9.48134835368022 7.35752223566174 4.4300368137192
350 112 6 0 9.72134835368022 6.42752223566174 4.4300368137192
351 113 6 0 2.10105273683555 4.10415521980263 12.9506876540836
352 113 7 0 3.06105273683555 4.10415521980263 12.9506876540836
353 113 6 0 3.30105273683555 3.17415521980263 12.9506876540836
354 114 6 0 11.7350465564243 14.7098393113725 1.16744592203759
355 114 7 0 12.6950465564243 14.7098393113725 1.16744592203759
356 114 6 0 12.9350465564243 13.7798393113725 1.16744592203759
357 115 6 0 0.0373526096530259 2.0274168326892 6.89359891111962
358 115 7 0 0.997352609653026 2.0274168326892 6.89359891111962
359 115 6 0 1.23735260965303 1.0974168326892 6.89359891111962
360 116 6 0 5.67954507001676 8.74367790803313 11.1618863360491
361 116 7 0 6.63954507001676 8.74367790803313 11.1618863360491
362 116 6 0 6.87954507001676 7.81367790803313 11.1618863360491
363 117 6 0 10.2140542950667 3.63303850562312 10.6844199390616
364 117 7 0 11.1740542950667 3.63303850562312 10.6844199390616
365 117 6 0 11.4140542950667 2.70303850562312 10.6844199390616
366 118 6 0 8.05358160330914 5.80815238104202 4.40803732140921
367 118 7 0 9.01358160330914 5.80815238104202 4.40803732140921
368 118 6 0 9.25358160330914 4.87815238104202 4.40803732140921
369 119 6 0 0.650475059375167 2.03861176542938 11.7412232619245
370 119 7 0 1.61047505937517 2.03861176542938 11.7412232619245
371 119 6 0 1.85047505937517 1.10861176542938 11.7412232619245
372 120 6 0 7.59903960672207 3.28201457782649 0.776141707319766
373 120 7 0 8.55903960672207 3.28201457782649 0.776141707319766
374 120 6 0 8.79903960672207 2.35201457782648 0.776141707319766
375 121 6 0 -0.408187956344336 12.7376073276997 9.72889666096307
376 121 7 0 0.551812043655664 12.7376073276997 9.72889666096307
377 121 6 0 0.791812043655664 11.8076073276997 9.72889666096307
378 122 6 0 5.21227320467122 5.927978713708 10.8948312455323
379 122 7 0 6.17227320467122 5.927978713708 10.8948312455323
380 122 6 0 6.41227320467122 4.997978713708 10.8948312455323
381 123 6 0 5.25435367293656 8.37696478277445 5.27181088691577
382 123 7 0 6.21435367293656 8.37696478277445 5.27181088691577
383 123 6 0 6.45435367293656 7.44696478277445 5.27181088691577
384 124 6 0 8.87802105207927 6.01318690617569 7.95112868305296
385 124 7 0 9.83802105207928 6.01318690617569 7.95112868305296
386 124 6 0 10.0780210520793 5.08318690617569 7.95112868305296
387 125 6 0 12.8180616830662 5.0431837087404 1.54606621479616
388 125 7 0 13.7780616830662 5.0431837087404 1.54606621479616
389 125 6 0 14.0180616830662 4.1131837087404 1.54606621479616
390 126 6 0 3.20146466765553 13.5100837684609 6.41867519938387
391 126 7 0 4.16146466765553 13.5100837684609 6.41867519938387
392 126 6 0 4.40146466765553 12.5800837684609 6.41867519938387
393 127 6 0 7.3654907061439 5.29302893247455 8.67360160918906
394 127 7 0 8.3254907061439 5.29302893247455 8.67360160918906
395 127 6 0 8.5654907061439 4.36302893247455 8.67360160918906
396 128 6 0 8.23413805847056 5.09201391058974 10.9988288430031
397 128 7 0 9.19413805847056 5.09201391058974 10.9988288430031
398 128 6 0 9.43413805847056 4.16201391058974 10.9988288430031
399 129 6 0 8.22052824703976 9.33597268344834 0.481413794914261
400 129 7 0 9.18052824703977 9.33597268344834 0.481413794914261
401 129 6 0 9.42052824703977 8.40597268344835 0.481413794914261
402 130 6 0 9.05568357484415 2.11583840236068 1.72022581100464
403 130 7 0 10.0156835748442 2.11583840236068 1.72022581100464
404 130 6 0 10.2556835748442 1.18583840236068 1.72022581100464
405 131 6 0 4.36107995032333 2.35818103346042 3.47065075999126
406 131 7 0 5.32107995032333 2.35818103346042 3.47065075999126
407 131 6 0 5.56107995032333 1.42818103346042 3.47065075999126
408 132 6 0 0.38045749344863 0.346191046237946 1.32188579184003
409 132 7 0 1.34045749344863 0.346191046237946 1.32188579184003
410 132 6 0 1.58045749344863 -0.583808953762055 1.32188579184003
411 133 6 0 0.808094680979848 12.4625928133633 4.10311373881996
412 133 7 0 1.76809468097985 12.4625928133633 4.10311373881996
413 133 6 0 2.00809468097985 11.5325928133633 4.10311373881996
414 134 6 0 13.2869636504631 8.29226292012259 9.30649210000411
415 134 7 0 14.2469636504631 8.29226292012259 9.30649210000411
416 134 6 0 14.4869636504631 7.36226292012259 9.30649210000411
417 135 6 0 13.1034488409944 5.676078306688 13.0062587710563
418 135 7 0 14.0634488409944 5.676078306688 13.0062587710563
419 135 6 0 14.3034488409944 4.746078306688 13.0062587710563
420 136 6 0 -0.687346424236894 12.142909520017 14.6585613721982
421 136 7 0 0.272653575763106 12.142909520017 14.6585613721982
422 136 6 0 0.512653575763106 11.212909520017 14.6585613721982
423 137 6 0 2.91030752632767 7.6131917156186 3.99303026497364
424 137 7 0 3.87030752632767 7.6131917156186 3.99303026497364
425 137 6 0 4.11030752632767 6.6831917156186 3.99303026497364
426 138 6 0 4.93331473248079 6.86608992557973 14.4790340855252
427 138 7 0 5.89331473248079 6.86608992557973 14.4790340855252
428 138 6 0 6.13331473248079 5.93608992557973 14.4790340855252
429 139 6 0 -0.00972387453541157 5.80367194296792 13.1380211468786
430 139 7 0 0.950276125464588 5.80367194296792 13.1380211468786
431 139 6 0 1.19027612546459 4.87367194296792 13.1380211468786
432 140 6 0 11.1227647836506 12.2768041996192 7.8766494942829
433 140 7 0 12.0827647836506 12.2768041996192 7.8766494942829
434 140 6 0 12.3227647836506 11.3468041996192 7.8766494942829
435 141 6 0 -0.30287930348888 3.08353904559277 13.7115700927097
436 141 7 0 0.65712069651112 3.08353904559277 13.7115700927097
437 141 6 0 0.89712069651112 2.15353904559277 13.7115700927097
438 142 6 0 6.52932834156789 3.05321796838194 7.08297088276595
439 142 7 0 7.48932834156789 3.05321796838194 7.08297088276595
440 142 6 0 7.72932834156789 2.12321796838194 7.08297088276595
441 143 6 0 5.43415755892172 8.03335941204801 12.130478132749
442 143 7 0 6.39415755892172 8.03335941204801 12.130478132749
443 143 6 0 6.63415755892172 7.10335941204801 12.130478132749
444 144 6 0 10.4981738507934 0.837527121594176 12.5837103102822
445 144 7 0 11.4581738507934 0.837527121594176 12.5837103102822
446 144 6 0 11.6981738507934 -0.0924728784058244 12.5837103102822
447 145 6 0 0.748208500882611 6.35922544909641 2.26571027305909
448 145 7 0 1.70820850088261 6.35922544909641 2.26571027305909
449 145 6 0 1.94820850088261 5.42922544909641 2.26571027305909
450 146 6 0 14.2543504996877 12.81915383338 9.09663991187699
451 146 7 0 15.2143504996877 12.81915383338 9.09663991187699
452 146 6 0 15.4543504996877 11.88915383338 9.09663991187699
453 147 6 0 4.99170709328726 5.62620285008103 3.45445731421933
454 147 7 0 5.95170709328726 5.62620285008103 3.45445731421933
455 147 6 0 6.19170709328726 4.69620285008103 3.45445731421933
456 148 6 0 13.9080022209976 9.89952731685713 7.50009375158697
457 148 7 0 14.8680022209976 9.89952731685713 7.50009375158697
458 148 6 0 15.1080022209976 8.96952731685713 7.50009375158697
459 149 6 0 4.09409191153944 7.15305744245648 14.5825022819918
460 149 7 0 5.05409191153944 7.15305744245648 14.5825022819918
461 149 6 0 5.29409191153944 6.22305744245648 14.5825022819918
462 150 6 0 4.96754796870053 5.02665691118687 5.5382251739502
463 150 7 0 5.92754796870053 5.02665691118687 5.5382251739502
464 150 6 0 6.16754796870053 4.09665691118687 5.5382251739502
465 151 6 0 1.03108760828152 14.5565248622466 1.51757896877825
466 151 7 0 1.99108760828152 14.5565248622466 1.51757896877825
467 151 6 0 2.23108760828152 13.6265248622466 1.51757896877825
468 152 6 0 3.54130446838215 9.67875566025265 4.08063354436308
469 152 7 0 4.50130446838215 9.67875566025265 4.08063354436308
470 152 6 0 4.74130446838215 8.74875566025265 4.08063354436308
471 153 6 0 3.51806286882609 13.3447678833641 6.82172753848135
472 153 7 0 4.47806286882609 13.3447678833641 6.82172753848135
473 153 6 0 4.71806286882609 12.4147678833641 6.82172753848135
474 154 6 0 12.0668534135632 4.20128576149233 12.2392680658959
475 154 7 0 13.0268534135632 4.20128576149233 12.2392680658959