LAMMPS (29 Sep 2021 - Update 1)
# Test LAMMPS input file for single DeFDe

# Initialize simulation

clear

units real
atom_style full
boundary p p p
dielectric 1
special_bonds dreiding

bond_style harmonic
angle_style harmonic
dihedral_style harmonic
improper_style umbrella
pair_style hybrid/overlay hbond/dreiding/lj 4 9.0 11.0 90 lj/cut 8.50000

# Read data file
read_data frag5.dat
Reading data file ...
  triclinic box = (0.0000000 0.0000000 0.0000000) to (15.000000 15.000000 15.000000) with tilt (0.0000000 0.0000000 0.0000000)
  2 by 4 by 4 MPI processor grid
  reading atoms ...
  1517 atoms
  scanning bonds ...
  2 = max bonds/atom
  scanning angles ...
  6 = max angles/atom
  scanning dihedrals ...
  15 = max dihedrals/atom
  scanning impropers ...
  1 = max impropers/atom
  reading bonds ...
  1016 bonds
  reading angles ...
  527 angles
  reading dihedrals ...
  32 dihedrals
  reading impropers ...
  3 impropers
Finding 1-2 1-3 1-4 neighbors ...
  special bond factors lj:    0        0        1       
  special bond factors coul:  0        0        1       
     4 = max # of 1-2 neighbors
     6 = max # of 1-3 neighbors
    10 = max # of special neighbors
  special bonds CPU = 0.002 seconds
  read_data CPU = 0.017 seconds

# Dreiding potential information

bond_coeff 1 350 1.53
bond_coeff 2 350 1.09
bond_coeff 3 350 1.375
bond_coeff 4 700 1.22
bond_coeff 5 700 1.275
bond_coeff 6 350 0.935
bond_coeff 7 350 0.98

angle_coeff 1 50 109.471
angle_coeff 2 50 120
angle_coeff 3 50 120
angle_coeff 4 50 104.51

dihedral_coeff 1 0.111111111111111 -1 3
dihedral_coeff 2 0.0833333333333333 -1 6
dihedral_coeff 3 5.625 -1 2

improper_coeff 1 40 0

pair_coeff 1 1 lj/cut 0.0951 3.8983
pair_coeff 1 2 lj/cut 0.0953995283007206 3.64309650983885
pair_coeff 1 3 lj/cut 0.0951 3.8983
pair_coeff 1 4 lj/cut 0.0857947550844456 3.77835472527395
pair_coeff 1 5 lj/cut 0.0380199947396104 3.52917391183829
pair_coeff 1 6 lj/cut 0.00308382878902186 3.52806914614779
pair_coeff 1 7 lj/cut 0.0953995283007206 3.64309650983885
pair_coeff 2 2 lj/cut 0.0957 3.4046
pair_coeff 2 3 lj/cut 0.0953995283007206 3.64309650983885
pair_coeff 2 4 lj/cut 0.0860649754545948 3.53100349192691
pair_coeff 2 5 lj/cut 0.0381397430510485 3.29813538230316
pair_coeff 2 6 lj/cut 0.0030935416596516 3.29710294046152
pair_coeff 2 7 lj/cut 0.0957 3.4046
pair_coeff 3 3 lj/cut 0.0951 3.8983
pair_coeff 3 4 lj/cut 0.0857947550844456 3.77835472527395
pair_coeff 3 5 lj/cut 0.0380199947396104 3.52917391183829
pair_coeff 3 6 lj/cut 0.00308382878902186 3.52806914614779
pair_coeff 3 7 lj/cut 0.0953995283007206 3.64309650983885
pair_coeff 4 4 lj/cut 0.0774 3.6621
pair_coeff 4 5 lj/cut 0.0342998542270955 3.42058613398347
pair_coeff 4 6 lj/cut 0.00278208554864871 3.41951536039831
pair_coeff 4 7 lj/cut 0.0860649754545948 3.53100349192691
pair_coeff 5 5 lj/cut 0.0152 3.195
pair_coeff 5 6 lj/cut 0.0012328828005938 3.19399984345648
pair_coeff 5 7 lj/cut 0.0381397430510485 3.29813538230316
pair_coeff 6 6 lj/cut 1e-04 3.193
pair_coeff 6 7 lj/cut 0.0030935416596516 3.29710294046152
pair_coeff 7 7 lj/cut 0.0957 3.4046
pair_coeff 2 4 hbond/dreiding/lj 6 j 9.50 2.75 4 9.0 11.0 90
pair_coeff 4 4 hbond/dreiding/lj 6 j 9.50 2.75 4 9.0 11.0 90
pair_coeff 4 7 hbond/dreiding/lj 6 i 9.50 2.75 4 9.0 11.0 90
pair_coeff 2 7 hbond/dreiding/lj 6 j 9.50 2.75 4 9.0 11.0 90
pair_coeff 4 7 hbond/dreiding/lj 6 j 9.50 2.75 4 9.0 11.0 90
pair_coeff 7 7 hbond/dreiding/lj 6 j 9.50 2.75 4 9.0 11.0 90

neighbor 2 bin
neigh_modify every 2 one 10000

# Gemoetric relaxation
fix 1 all box/relax iso 1.0 vmax 0.001
minimize 1.0e-4 1.0e-6 10000 10000
WARNING: Using 'neigh_modify every 1 delay 0 check yes' setting during minimization (../min.cpp:188)
Neighbor list info ...
  update every 1 steps, delay 0 steps, check yes
  max neighbors/atom: 10000, page size: 100000
  master list distance cutoff = 13
  ghost atom cutoff = 13
  binsize = 6.5, bins = 3 3 3
  3 neighbor lists, perpetual/occasional/extra = 3 0 0
  (1) pair hbond/dreiding/lj, perpetual, skip from (3)
      attributes: full, newton on
      pair build: skip
      stencil: none
      bin: none
  (2) pair lj/cut, perpetual, half/full from (3)
      attributes: half, newton on
      pair build: halffull/newton
      stencil: none
      bin: none
  (3) neighbor class addition, perpetual
      attributes: full, newton on
      pair build: full/bin
      stencil: full/bin/3d
      bin: standard
Per MPI rank memory allocation (min/avg/max) = 16.11 | 16.43 | 17.14 Mbytes
Step Temp E_pair E_mol TotEng Press Volume 
       0            0 8.8910887e+14    278.60401 8.8910887e+14 7.2254563e+16         3375 
    5329            0   -1022.0787    32.068603   -990.01013    104.07917    36500.952 
Loop time of 4.65543 on 32 procs for 5329 steps with 1517 atoms

100.0% CPU use with 32 MPI tasks x no OpenMP threads

Minimization stats:
  Stopping criterion = energy tolerance
  Energy initial, next-to-last, final = 
       889108874764832  -989.431823439361  -989.527023352585
  Force two-norm initial, final = 5.6938182e+16 105.85297
  Force max component initial, final = 2.7788968e+16 74.438126
  Final line search alpha, max atom move = 1.3436130e-05 0.0010001603
  Iterations, force evaluations = 5329 5330

MPI task timing breakdown:
Section |  min time  |  avg time  |  max time  |%varavg| %total
---------------------------------------------------------------
Pair    | 1.4688     | 2.6113     | 3.9286     |  41.4 | 56.09
Bond    | 0.0067414  | 0.011299   | 0.030547   |   3.9 |  0.24
Neigh   | 0.094491   | 0.094843   | 0.095308   |   0.1 |  2.04
Comm    | 0.27024    | 1.5909     | 2.7342     |  53.2 | 34.17
Output  | 0          | 0          | 0          |   0.0 |  0.00
Modify  | 0          | 0          | 0          |   0.0 |  0.00
Other   |            | 0.3471     |            |       |  7.46

Nlocal:        47.4062 ave          70 max          25 min
Histogram: 1 0 5 7 4 3 6 3 0 3
Nghost:        2033.84 ave        2077 max        1992 min
Histogram: 3 2 4 4 4 3 3 4 3 2
Neighs:        5246.31 ave        8752 max        2461 min
Histogram: 1 4 4 7 5 4 3 2 0 2

Total # of neighbors = 167882
Ave neighs/atom = 110.66711
Ave special neighs/atom = 2.0342782
Neighbor list builds = 88
Dangerous builds = 0

# MD simulation
velocity all create 300.0 12345 rot yes dist gaussian
timestep 1.0
fix 2 all nvt temp 300.0 300.0 1

# Compute interaction energy
group WAT molecule <> 2 501
1500 atoms in group WAT
group MOL molecule 1
17 atoms in group MOL

compute w WAT group/group MOL pair yes
fix 3 all ave/time 10 5 100 c_w file outa

# Outputs
thermo 100 # Output thermodynamic data every nth step
#dump mf1 all xyz 10000 mol_*.xyz

# Run
run 1000000
Neighbor list info ...
  update every 2 steps, delay 10 steps, check yes
  max neighbors/atom: 10000, page size: 100000
  master list distance cutoff = 13
  ghost atom cutoff = 13
  binsize = 6.5, bins = 6 6 6
  4 neighbor lists, perpetual/occasional/extra = 3 1 0
  (1) pair hbond/dreiding/lj, perpetual, skip from (4)
      attributes: full, newton on
      pair build: skip
      stencil: none
      bin: none
  (2) pair lj/cut, perpetual, half/full from (4)
      attributes: half, newton on
      pair build: halffull/newton
      stencil: none
      bin: none
  (3) compute group/group, occasional, copy from (2)
      attributes: half, newton on
      pair build: copy
      stencil: none
      bin: none
  (4) neighbor class addition, perpetual
      attributes: full, newton on
      pair build: full/bin
      stencil: full/bin/3d
      bin: standard
Per MPI rank memory allocation (min/avg/max) = 14.95 | 14.99 | 15.61 Mbytes
Step Temp E_pair E_mol TotEng Press Volume 
    5329          300   -1022.0787    32.068603    365.66228     1801.867    36500.952 
    5400     302.2186   -1101.4872    165.42616    429.63699   -166.17761    36500.952 
    5500    287.21157   -1120.6035    197.53522    374.81436   -294.65103    36500.952 
    5600    305.48273   -1130.1764    198.82388    449.09587    585.25161    36500.952 
    5700    298.77785   -1135.2111    173.08266    388.02118    700.87305    36500.952 
    5800    295.02358   -1153.1124    186.74733    366.81936    183.39604    36500.952 
    5900    298.44843    -1157.704    219.08807    410.04508    456.50229    36500.952 
    6000    305.98571   -1158.3076    191.94784    416.36149    621.37439    36500.952 
    6100    315.08829     -1110.61    199.35998    512.60499    911.31754    36500.952 
    6200    297.06736   -1098.1737    204.52483     448.7712    592.55349    36500.952 
    6300    298.01525    -1112.958    210.50425    444.24972    399.66051    36500.952 
    6400    298.84851   -1120.8239    211.63969    441.28469    520.69103    36500.952 
    6500    303.11466   -1159.1826    201.96719    412.53187    97.070971    36500.952 
    6600     296.4048   -1130.4691     222.1986    431.15551    75.581638    36500.952 
    6700    294.40806   -1137.9445    211.61604    404.07448    689.84285    36500.952 
    6800    296.83081   -1124.9162    217.52692    433.96182     469.1516    36500.952 
    6900    306.41665   -1153.7427    210.10599    441.03196    296.94573    36500.952 
    7000    306.47356   -1115.1147    216.46096    486.27208    58.646031    36500.952 
    7100    291.70812   -1128.7688     209.4918    398.92519    192.87207    36500.952 
    7200     314.0208   -1151.9548    215.58772     482.6641    393.15376    36500.952 
    7300    297.90215   -1140.7654    222.69748    428.12451    733.73379    36500.952 
    7400    308.74288   -1154.9988    209.65746    449.83936    489.05606    36500.952 
    7500    293.59847   -1208.6767    222.95746    341.02526    260.31289    36500.952 
    7600    295.48148   -1161.8861    222.06663    395.43416    513.14978    36500.952 
    7700    296.65922   -1171.9357     210.7008    379.34085    341.63928    36500.952 
    7800    299.97231   -1151.4395    217.32311    421.43094    488.36236    36500.952 
    7900    299.19424   -1165.9745    218.90966    404.96643    832.22154    36500.952 
    8000    300.65602   -1169.2559    227.71276    417.09374    257.85386    36500.952 
    8100    285.68756   -1163.8922      222.059    349.16258    261.66935    36500.952 
    8200    295.29644    -1168.626    239.77404    405.56546    626.06826    36500.952 
    8300    307.62939   -1132.4291    223.75165    481.47148    1011.6331    36500.952 
    8400    308.01223   -1176.3445    226.66088    442.19536    369.37968    36500.952 
    8500    304.26045    -1165.573    240.89519    450.24719    768.38944    36500.952 
    8600    289.24245   -1202.6337    225.17783    329.60416    721.64054    36500.952 
    8700    298.38201   -1201.0771    239.96149    387.24525    652.54667    36500.952 
    8800    293.39923   -1182.0345    227.87726    371.68689    319.07437    36500.952 
    8900    302.64837   -1159.9425     228.7888    436.48642    201.84809    36500.952 
    9000    296.55959   -1175.7071     238.8547    403.27314   -81.167591    36500.952 
    9100    303.68479     -1166.08    231.57625    437.81989    255.41254    36500.952 
    9200    301.24194   -1174.1324    245.92618    433.07835    386.50128    36500.952 
    9300    297.76845   -1161.3013    255.92008    440.20705    131.66933    36500.952 
    9400    299.77389   -1186.8972    247.19977    414.95322      92.8968    36500.952 
    9500     303.0821   -1222.1242    231.38761    378.86351   -147.86782    36500.952 
    9600     301.0858     -1162.02    240.10704    438.66606   -135.33803    36500.952 
    9700    298.96359   -1173.0344    247.99138    425.94599   -334.41833    36500.952 
    9800    300.24894   -1134.2521    252.90902    475.45427   -70.861822    36500.952 
    9900    307.39635   -1114.7906    251.59208    525.89732    520.93089    36500.952 
   10000    304.27518   -1137.0919    249.08433      486.984    547.53053    36500.952 
   10100    302.74513   -1111.0813    245.66143    502.65757    559.20962    36500.952 
   10200     306.1291   -1166.2397    244.64168    461.77125    305.43389    36500.952 
   10300    302.80019   -1155.6475    243.76974    456.44844   -24.738352    36500.952 
   10400    299.10074   -1139.0557    239.85771    452.41078   -13.827333    36500.952 
   10500     305.9493   -1168.5815    245.43971    459.41496    230.28617    36500.952 
   10600    296.59776   -1176.8523    250.50994    413.95568    236.31968    36500.952 
   10700    293.34886   -1187.8726    245.49642    383.24037    249.22188    36500.952 
   10800    299.37254   -1219.2463    257.23884    390.82951     99.78284    36500.952 
   10900    296.15511   -1184.4714    256.80804     410.6343    320.75941    36500.952 
   11000    302.53605   -1210.2894    245.07496    401.91813     178.9576    36500.952 
   11100    293.14103   -1178.2142     269.7778    416.24095    536.39531    36500.952 
   11200    297.97175   -1119.7559    261.66342    488.41445    406.28637    36500.952 
   11300     299.4428   -1162.0197    259.62183    450.75657    598.20653    36500.952 
   11400    302.49851   -1189.4517      246.001    423.51229    769.53966    36500.952 
   11500    301.21714   -1204.8783    278.04401    434.33831    335.26135    36500.952 
   11600    312.63199   -1186.0739     251.9137    478.59498    604.69463    36500.952 
   11700     290.7653   -1153.0504    265.23839    426.12964    243.93395    36500.952 
   11800    295.60442   -1176.5618    260.59068    419.83802    983.50927    36500.952 
   11900    302.94574   -1211.8726    255.63033    412.74167    462.68537    36500.952 
   12000    294.24512   -1202.8795    265.29815    392.08522    608.67727    36500.952 
   12100    307.30669   -1165.5375    275.67543    498.82862    846.11109    36500.952 
   12200    306.82269    -1175.006    266.94919    478.44675    787.20757    36500.952 
   12300    302.38613   -1177.9855    274.73847    463.20807    346.45306    36500.952 
   12400    293.82925   -1173.0024    261.73263     416.5176    509.23501    36500.952 
   12500     305.3497   -1154.3115    269.20856    494.74424    158.92963    36500.952 
   12600    298.61291   -1165.5757    268.35787     452.1865    102.88603    36500.952 
   12700     305.2958   -1159.9654    275.75178       495.39    179.57299    36500.952 
   12800     294.2809    -1159.031     279.9219     450.7192    39.790629    36500.952 
   12900    306.21072   -1161.3249    262.61166    485.02487    141.90463    36500.952 
   13000    304.39671   -1159.6975    285.26095    501.10419    284.75141    36500.952 
   13100    302.88761   -1183.7018    269.18153    454.20101    624.52261    36500.952 
   13200    308.00735   -1139.8692    279.63687    531.62459    459.93825    36500.952 
   13300    305.28351   -1166.4488    285.28778     498.3871    97.643831    36500.952 
   13400     303.0838   -1221.3639    258.05998    406.30392    247.93944    36500.952 
   13500    294.25659   -1246.5242    274.88598    358.08023    425.17495    36500.952 
   13600    296.27111   -1214.8886    278.77536     402.7086    350.32629    36500.952 
   13700    300.50953   -1196.0764    282.10597    444.00449    404.28013    36500.952 
   13800    300.83724   -1207.1418    288.71176    441.02575    650.43315    36500.952 
   13900    316.19606   -1180.3208    279.71646    528.25657    855.92794    36500.952 
   14000    304.75658   -1173.3508    274.29382    478.10999    685.73927    36500.952 
   14100    300.86183   -1175.9565    281.29809    464.90854    775.14849    36500.952 
   14200    306.95795   -1159.5153    281.57522    509.17467    404.74494    36500.952 
   14300    313.60074   -1216.7737    276.61554    476.97472    255.60729    36500.952 
   14400    300.42831   -1173.5651     282.0169    466.05967    198.81398    36500.952 
   14500    299.00828   -1145.9729    295.97433    501.19239   -486.45794    36500.952 
   14600    313.46724   -1146.8338    267.34991    537.04576     259.7462    36500.952 
   14700    301.13691   -1190.3192    288.20274    458.69349   -153.14518    36500.952 
   14800    291.39244   -1154.2712    289.65385    452.15831    144.10929    36500.952 
   14900    289.15896    -1163.834    310.10527    452.95398    268.41473    36500.952 
   15000    296.18199   -1152.1509    288.97505    475.24333    651.51188    36500.952 
   15100    305.69716    -1186.871    299.80242     494.3488   -160.93526    36500.952 
   15200    303.31622   -1194.6489    289.29059    465.29974   -4.5876195    36500.952 
   15300    300.59421   -1232.7265    290.59751    416.22864    98.497859    36500.952 
   15400    294.33673   -1231.2691    300.15144      398.963    125.10324    36500.952 
   15500    295.68175   -1227.4797    296.68721    405.36617    85.374327    36500.952 
   15600    296.35883   -1215.5961     307.7364    431.35857     444.5866    36500.952 
   15700    294.15933   -1253.9349    299.22368    374.56769     112.5921    36500.952 
   15800    291.97912   -1236.2681    285.97964     369.1384    467.02711    36500.952 
   15900    295.89297    -1216.617    282.08632    402.58245    408.56458    36500.952 
   16000    292.95461   -1276.6008    299.18024    346.41438    30.102064    36500.952 
   16100    307.71722   -1221.3852    300.02246    469.18307    285.38258    36500.952 
   16200    300.45018   -1216.5493    300.77672    441.93411    204.94029    36500.952 
   16300    301.16333   -1196.7147    296.28199    460.49669    76.519941    36500.952 
   16400    298.30084   -1196.9571    301.15239    452.18934   -252.90655    36500.952 
   16500    291.48663   -1188.0156    297.39679    426.58247   -65.408005    36500.952 
   16600    294.84668   -1208.4296    309.72413    433.67958    15.239026    36500.952 
   16700    297.88492   -1210.2051    299.21542    435.12485   -221.11904    36500.952 
   16800    307.35129   -1232.9777    304.46455    460.37908   -13.657367    36500.952 
   16900    289.36519   -1229.3712    302.41979    380.66328    348.69196    36500.952 
   17000    297.26535   -1255.1308    314.13801      402.322    133.56185    36500.952 
   17100    290.68226   -1273.2929    318.27877    358.55231    728.34301    36500.952 
   17200     293.7857   -1251.7522    301.90577    377.74418    297.21451    36500.952 
   17300    304.12084   -1229.2467    291.68991    436.73736    865.12445    36500.952 
   17400    299.81934    -1247.095     299.4211    407.18208    719.20842    36500.952 
   17500    302.19085   -1245.0369    316.71591    437.25166    249.87656    36500.952 
   17600    291.55286   -1270.9624    305.19334    351.73147    30.535259    36500.952 
   17700     309.0387   -1250.3351    304.55567    450.73806    573.64708    36500.952 
   17800    306.99078   -1195.4376    323.28291    515.10845    55.521324    36500.952 
   17900    316.60086   -1212.4587    337.78359    556.01507    149.66088    36500.952 
   18000    296.73622   -1267.8756       309.16    382.20805   -44.372767    36500.952 
   18100    289.71471   -1244.5064    317.78592    382.47361    191.57006    36500.952 
   18200    307.17646   -1211.8391    309.87007    486.13311    135.09424    36500.952 
   18300    293.97071   -1253.2669    322.45155    397.61126    129.00158    36500.952 
   18400     291.1762   -1258.8027    312.95838    369.95414    256.75914    36500.952 
   18500    302.92344   -1242.9301    322.63661    448.58971   -10.289118    36500.952 
   18600    292.91308   -1241.7335    316.23862    398.15236     185.4056    36500.952 
   18700    305.32855   -1263.6088    315.85965    432.00252    243.60848    36500.952 
   18800    297.93506   -1173.8672    341.42872    513.90268    344.46025    36500.952 
   18900    302.06582    -1185.363     314.6936    494.33829   -118.88162    36500.952 
   19000    296.12389    -1189.749    323.29717    471.70477    268.51918    36500.952 
   19100    298.19137   -1214.3152    327.71084    460.89502    250.34055    36500.952 
   19200    297.19906   -1238.3011    316.14341    420.85754    -105.5067    36500.952 
   19300    312.20814   -1236.4069    334.22275     508.6557    362.02949    36500.952 
   19400    295.88768   -1292.1685     316.5796    361.50033    247.48005    36500.952 
   19500    296.16585   -1220.8366    321.30558    438.81523   -182.31135    36500.952 
   19600    299.06749   -1247.9808    325.07771    428.55534    137.52135    36500.952 
   19700    297.12984   -1275.2277    317.81022    385.28491    259.16118    36500.952 
   19800    301.76132   -1247.3172    318.16046    434.47496    14.069362    36500.952 
   19900    292.15973   -1239.8372    348.72103    429.12673    303.39658    36500.952 
   20000    301.25498     -1278.82    324.09099    406.61454    169.76204    36500.952 
   20100    306.39329   -1244.9812    330.73949    470.32138     456.6123    36500.952 
   20200    299.89852   -1220.8392    311.76488    446.13952    103.80683    36500.952 
   20300    312.32406   -1194.8163    322.93235    539.47977    117.68733    36500.952 
   20400     297.2108   -1245.8327    328.39788    425.63344   -186.57408    36500.952 
   20500    296.55648    -1190.592     326.4274    475.94685   -44.344049    36500.952 
   20600    299.00079    -1244.995    330.37053    436.53257   -8.2287558    36500.952 
   20700    292.94325   -1217.8778    312.46523    418.37102    84.170352    36500.952 
   20800    288.46915    -1268.999    330.59972    365.16628    233.26232    36500.952 
   20900    302.21358   -1244.8641    318.95786    439.76913    320.12484    36500.952 
   21000    297.54395   -1255.5248    317.95142     407.0004     368.3271    36500.952 
   21100    308.90072   -1202.6095    339.72233    533.00673    563.72554    36500.952 
   21200    297.03394   -1231.1201    351.70403    462.85303    145.12633    36500.952 
   21300    299.70367   -1208.0693    344.68855     490.9526    399.70428    36500.952 
   21400    293.69469    -1227.946    335.07322    434.30649    289.15988    36500.952 
   21500    297.91902   -1245.9477    326.39263    426.71361      557.824    36500.952 
   21600    296.20864   -1210.3446    368.92226    497.11723   -115.01607    36500.952 
   21700    313.15995   -1259.4294    332.01179    487.72346    299.02898    36500.952 
   21800    293.89808   -1240.6376    329.21103    416.67183    328.66685    36500.952 
   21900    312.50957   -1254.1912    340.77685    498.78766    796.67431    36500.952 
   22000    301.28041   -1224.7554    340.58538    477.28844    458.37229    36500.952 
   22100    300.88151   -1245.4379    336.22847    450.44645    749.29395    36500.952 
   22200    297.43556   -1253.0788    329.89202    420.89719    210.29216    36500.952 
   22300    299.82277   -1278.4174    345.33346    421.78755    520.50376    36500.952 
   22400    292.64989   -1212.9383    331.40718    440.92682    329.92417    36500.952 
   22500    307.26062   -1234.2758    325.43059    479.63727    380.90958    36500.952 
   22600      296.341   -1217.2575    364.36386     486.2441   -110.63528    36500.952 
   22700    305.59967   -1220.8634    333.95375    494.06716    488.88311    36500.952 
   22800    294.10225   -1216.6003     340.6642    453.08494    408.83492    36500.952 
   22900    297.52031   -1166.1428    354.58553    532.90967    188.28974    36500.952 
   23000    311.41338   -1183.0145    351.50228    575.73618    555.64385    36500.952 
   23100    304.27615   -1206.0232    339.23526    508.20803    665.22855    36500.952 
   23200    298.58989   -1209.0259    370.48708    510.76141    298.97379    36500.952 
   23300    304.44944   -1194.5958    328.80424    509.98752    194.72969    36500.952 
   23400    295.43207    -1266.402    346.23732    414.86564    21.115929    36500.952 
   23500    295.10023   -1259.8282    345.63942      419.342   -192.30053    36500.952 
   23600    302.80739   -1269.7258    340.82799    439.46099     118.4666    36500.952 
   23700    308.49539   -1223.2359    357.13714    527.96352    529.41479    36500.952 
   23800     303.5074   -1188.0101    340.17456    523.68651    699.60777    36500.952 
   23900    303.58497   -1234.9473    337.51999     474.4453    330.38506    36500.952 
   24000    304.58152   -1230.4463    357.26396     503.1936    323.35713    36500.952 
   24100    291.84003    -1241.971    373.79311    450.62039    240.34786    36500.952 
   24200    305.67313   -1189.4084    362.28821    554.18856    781.45076    36500.952 
   24300    307.54962   -1209.6804    365.77905    545.88706    578.60753    36500.952 
   24400    302.58592   -1200.2229    365.30829    532.44333    717.01184    36500.952 
   24500     297.6486   -1241.3753    359.72869    463.40001    210.82493    36500.952 
   24600    304.08081   -1214.8032    357.57796    516.88793    822.32305    36500.952 
   24700    294.21901   -1246.6584    360.46831    443.35858    94.537227    36500.952 
   24800    295.81423    -1241.026    345.75199    441.48331   -110.78184    36500.952 
   24900    293.75106   -1208.4435    361.25061    480.24116   -245.69813    36500.952 
   25000    312.37066   -1211.0582    352.30401    552.82005   -256.47121    36500.952 
   25100    296.26768   -1177.7537     367.6761    528.72883   -123.89176    36500.952 
   25200     297.5995   -1171.8812    371.48938    544.43297    431.52943    36500.952 
   25300    307.34763   -1193.2484    366.07036    561.69769    345.14373    36500.952 
   25400    296.48901   -1206.8536    362.36244    495.31535    120.69686    36500.952 
   25500    303.45452   -1219.3133    349.66139     501.6311     150.0994    36500.952 
   25600     304.6198   -1205.9785     354.5115    525.08183   -179.57688    36500.952 
   25700    294.94915   -1231.9331    373.34128    474.25626   -131.97838    36500.952 
   25800    299.84394    -1251.271    348.21355    451.90971   -198.68905    36500.952 
   25900    296.40286   -1237.2022    346.00792    448.22301    36.082414    36500.952 
   26000    292.30566   -1259.2021    348.03025    409.73053    545.49372    36500.952 
   26100    296.78813   -1247.8326    343.04287    436.36849    367.27526    36500.952 
   26200    304.63785   -1235.7193    361.75994    502.67106    396.27993    36500.952 
   26300    299.89532    -1270.219    354.82903    439.80938    206.94297    36500.952 
   26400    294.51095   -1256.2218     365.0194    439.66556    118.14347    36500.952 
   26500    306.01938   -1277.1002    338.86617    444.63943   -747.11784    36500.952 
   26600    306.81335   -1233.4971     366.2009    519.16507    -410.8914    36500.952 
   26700    291.41781   -1226.9942    353.13757    443.03363    50.010034    36500.952 
   26800    301.10451   -1232.7216    353.49975    481.44176   -85.534137    36500.952 
   26900     304.6655   -1237.9138    365.47112    504.31272    -121.2287    36500.952 
   27000    297.91568   -1224.3214    352.67574     474.6079   -437.07001    36500.952 
   27100    300.77614   -1222.5562    360.73756    497.36104    271.12624    36500.952 
   27200    308.04424    -1251.824    358.70292    498.90247    151.97266    36500.952 
   27300    305.44913   -1245.3942    347.50702    482.40931    112.21147    36500.952 
   27400    296.31954   -1269.2416    361.94541    431.74452    24.717907    36500.952 
   27500    293.93012   -1281.0945    365.53352    412.68223   -251.23066    36500.952 
   27600    288.47793   -1271.0132    350.95735    383.54938   -154.35108    36500.952 
   27700    300.76312   -1227.0135    344.82665    476.93406   -170.23341    36500.952 
   27800    298.43146   -1244.3903    361.12273     465.3168   -496.55718    36500.952 
   27900    298.13236   -1262.6852    364.86918    449.41664     298.0744    36500.952 
   28000    295.11505    -1269.504     361.0581    425.15189    251.14552    36500.952 
   28100    287.44106   -1262.3637    393.43571    429.99169    136.19303    36500.952 
   28200    284.71459   -1293.6699    362.73381    355.66298    503.82466    36500.952 
   28300    292.94509   -1285.9001     356.4367    394.32849    355.11352    36500.952 
   28400    291.33204   -1290.0359      350.711    377.17781   -417.21889    36500.952 
   28500    296.86729   -1312.5771    359.37265     388.3115   -347.78659    36500.952 
   28600    295.11991   -1301.5734    372.51777    404.56408    220.96688    36500.952 
   28700    309.96782   -1292.4925    362.57149    470.79501    309.54121    36500.952 
   28800    296.69508   -1250.0328    345.52129    436.22622    241.06656    36500.952 
   28900    297.99372   -1277.2353    356.51474    425.88565    29.905058    36500.952 
   29000    313.81242   -1294.5014    373.82986    497.41788    354.23659    36500.952 
   29100    306.52823    -1234.604    376.70233    527.27123    500.55617    36500.952 
   29200    302.05705   -1238.2439    360.86739    487.59153    279.66705    36500.952 
   29300    304.35114   -1253.1335    373.68788    495.88921    78.974711    36500.952 
   29400    308.17152   -1249.9633    380.21346    522.84895   -234.91943    36500.952 
   29500    291.50952   -1243.3009    375.00663    449.01042    40.568762    36500.952 
   29600    293.02947   -1279.9181    355.65479    399.90998    428.40809    36500.952 
   29700    310.57685   -1280.2903     365.5986    488.77647    24.380183    36500.952 
   29800    302.27924   -1266.7396    365.90065     465.1331     38.67344    36500.952 
   29900    295.56565    -1292.949    364.26985    406.95482    13.627666    36500.952 
   30000    289.44822   -1278.9231    369.25747    398.32427    30.268209    36500.952 
   30100    304.65325   -1250.3049    360.34604    486.74112    185.12632    36500.952 
   30200    296.36815   -1258.9472    388.59592    468.90916    648.07003    36500.952 
   30300    298.18062    -1256.282    382.08731    473.25615    778.61757    36500.952 
   30400    305.79233   -1250.7732    379.09932    510.17355    508.46675    36500.952 
   30500    297.04223   -1228.1077    384.30716    498.50595    631.66295    36500.952 
   30600    288.55094    -1228.007     372.3033    448.23147    1367.1824    36500.952 
   30700    302.62386   -1267.4364    386.54132    486.63433    966.32508    36500.952 
   30800    302.13897   -1236.6247    380.28036     508.9939    455.62554    36500.952 
   30900    307.12906   -1224.4967    382.35687    545.74818    569.00638    36500.952 
   31000    298.26867    -1276.334    371.71762     443.2323    219.94663    36500.952 
   31100    302.66692    -1205.454    374.34159    536.61159    641.62356    36500.952 
   31200      294.365   -1250.2445    384.60516    464.56902   -77.285648    36500.952 
   31300    295.33008   -1301.3686    352.08947    385.29031   -397.23315    36500.952 
   31400    292.02468   -1281.9245    373.64228    411.35043    306.25647    36500.952 
   31500    306.32023   -1245.1492    371.23136    510.31505   -9.5067028    36500.952 
   31600    301.74667   -1289.0406    360.25191    434.77678    94.494266    36500.952 
   31700    299.21683   -1282.2639    369.33952    439.20897    -181.6859    36500.952 
   31800    324.45988    -1285.284    361.49322    542.41354   -23.540578    36500.952 
   31900    302.02908   -1262.2391    373.79949      476.402   -320.81705    36500.952 
   32000    298.46379   -1276.1868    377.64538    450.18902   -208.11197    36500.952 
   32100    293.84737   -1310.7476     388.3818    405.50344    355.04786    36500.952 
   32200    307.71128   -1286.5346    374.09028    478.07461    416.36962    36500.952 
   32300    298.83337   -1262.0308    379.16975     467.5395    344.34097    36500.952 
   32400     294.7784   -1253.9131    370.36607    448.52949   -260.35608    36500.952 
   32500    293.54982   -1283.3912    375.72092    418.85437     30.83252    36500.952 
   32600    298.75889    -1276.793    369.09276    442.36372    471.59204    36500.952 
   32700     302.8584   -1277.6202    379.31465    470.28368   -124.14283    36500.952 
   32800    303.07748   -1245.1323    373.81272    498.25974    429.20582    36500.952 
   32900    295.71229   -1286.7961    347.79602    397.29657    211.31106    36500.952 
   33000    291.93378   -1283.8814    380.02421    415.36467   -229.78699    36500.952 
   33100    301.02739    -1274.849    363.68685    449.15294   -499.28721    36500.952 
   33200    292.70733   -1283.2178    365.24798    404.74774   -62.551235    36500.952 
   33300    297.37201   -1264.9728    377.73406    456.55808    412.67847    36500.952 
   33400    294.46564   -1260.8368    402.48387    472.31024     488.4199    36500.952 
   33500    291.42001   -1248.8349    394.11589    462.18116    32.574039    36500.952 
   33600     294.4479   -1308.9635    368.73479    390.35426   -26.700012    36500.952 
   33700    302.37428   -1272.6214    366.49961    460.27976    308.86026    36500.952 
   33800    300.93526   -1290.2115     375.5036    445.19083    -545.0986    36500.952 
   33900     294.2739   -1322.1288    356.76601    364.43387    243.88972    36500.952 
   34000    299.93275   -1287.1105    362.33217    430.59018   -69.598249    36500.952 
   34100    296.67761   -1333.3196    361.62741    368.96669    77.691875    36500.952 
   34200    301.04387   -1293.5704    384.89168     451.7108    432.10058    36500.952 
   34300    294.81869   -1290.1611    371.17753    413.27497    169.05711    36500.952 
   34400     301.4562   -1308.8882    361.80563    415.17025   -28.300316    36500.952 
   34500    289.99864   -1298.4109    387.33587    399.40215    -299.9695    36500.952 
   34600    300.36112   -1288.0415    360.02219    429.28498    26.827936    36500.952 
   34700    290.58345   -1307.2762    391.57369    397.41742   -580.50737    36500.952 
   34800    305.81271   -1320.0487    378.13991    440.03066    248.48941    36500.952 
   34900    301.83663   -1310.9144    371.73402    424.79154   -221.71596    36500.952 
   35000    299.64747   -1320.0121     400.9933    435.06061   -580.92075    36500.952 
   35100    297.92424   -1271.7912    408.09737    482.59839    -220.3927    36500.952 
   35200    305.32873   -1277.6145    399.36921    501.50719    177.60613    36500.952 
   35300    298.75775   -1296.9433    406.33438    459.44985   -23.518779    36500.952 
   35400    307.28466    -1340.962    394.99837    442.62754    413.95121    36500.952 
   35500    288.37534   -1320.9728    422.55339    404.72227     455.4208    36500.952 
   35600    296.72123    -1327.911    419.99924    432.94422   -134.77579    36500.952 
   35700     298.7558   -1288.8071    401.09197    462.33492    365.84127    36500.952 
   35800    307.10536    -1389.698    391.39541    389.47831     633.6498    36500.952 
   35900    290.97507   -1339.3223     386.1103    361.67756    315.34204    36500.952 
   36000    298.67372   -1298.9458    380.88361    431.61688     268.6899    36500.952 
   36100     300.4003   -1321.8967    392.39331     427.9779    397.80829    36500.952 
   36200    293.81231   -1300.9747    403.70532    430.44147   -104.63204    36500.952 
   36300    295.79525   -1260.9423    399.60784    475.33708    325.89302    36500.952 
   36400    301.99108   -1258.4166    434.28809    540.54142     364.3816    36500.952 
   36500    304.60207    -1294.188    391.50601    473.78674   -367.27249    36500.952 
   36600     299.2219   -1288.9941     423.5651    486.72723    43.668328    36500.952 
   36700    292.62956   -1309.2388    396.60722     409.7345   -257.99177    36500.952 
   36800    292.83967   -1281.2707    414.08341    456.12831    8.4309601    36500.952 
   36900    298.23765   -1300.2956    398.42233    445.83527     538.8755    36500.952 
   37000    292.95595   -1370.6665    396.70606    349.88057    895.62366    36500.952 
   37100    295.28505   -1332.8727    392.78476      394.278    578.17542    36500.952 
   37200    303.58509   -1328.0764    400.60791    444.40463    557.67672    36500.952 
   37300    299.55894   -1313.2879    406.75958    447.15099    650.37369    36500.952 
   37400    297.12401   -1346.6208    397.29277    393.34806    459.18682    36500.952 
   37500    296.59852   -1304.9711      394.043    429.37332    496.08907    36500.952 
   37600    317.27704   -1321.8909     383.3374    495.19231    30.273862    36500.952 
   37700    305.90639   -1318.6165    429.62517    493.37148    377.56768    36500.952 
   37800    302.56356   -1368.0348    400.59187    399.81393    413.41248    36500.952 
   37900    294.45329   -1328.1272    403.69029    406.17041    287.29887    36500.952 
   38000    292.45156   -1327.4988    412.29039    406.35333   -166.05255    36500.952 
   38100    304.44663   -1354.1773    391.89138    413.48039    328.50869    36500.952 
   38200    299.33074   -1317.2392     413.4734    448.88228    278.12254    36500.952 
   38300    304.56555   -1360.2509    378.42322    394.47599    428.12097    36500.952 
   38400    305.29828   -1363.6514    390.93741    406.90087    284.85335    36500.952 
   38500    297.17393   -1371.0121    383.21344    355.10299    214.74348    36500.952 
   38600    291.97199   -1328.1489    417.24575    408.49147    209.37934    36500.952 
   38700    294.63345   -1328.1094    395.02327    398.33537    428.26869    36500.952 
   38800    296.50497   -1330.0333    417.14485    426.99025    232.85916    36500.952 
   38900    298.14296   -1311.6819    443.87986    479.47858    771.81229    36500.952 
   39000    303.66521   -1339.7187    408.91867    441.43515    375.05146    36500.952 
   39100    296.35952   -1380.3575    407.69028     366.5542    332.89001    36500.952 
   39200    297.57384   -1387.0414     397.2624     354.9298   -125.29395    36500.952 
   39300    299.20147    -1353.442    386.04237    384.66426    51.238875    36500.952 
   39400    298.72675   -1351.7681    408.88408    407.03475    -124.4117    36500.952 
   39500    292.40437   -1335.4811    393.54061      379.408    241.43478    36500.952 
   39600    303.79383   -1329.2729    408.58095    452.12443    652.69894    36500.952 
   39700    297.54869   -1348.2755     403.8136    400.13329    394.55126    36500.952 
   39800     294.6242   -1352.3351    411.80696     390.8515     192.7364    36500.952 
   39900    298.05654   -1403.7969    381.57031    324.66354   -218.55353    36500.952 
   40000     299.9661   -1403.8454     379.1088    330.78259    177.68789    36500.952 
   40100    299.71828   -1384.8433    403.27071    372.82672    551.56755    36500.952 
   40200    305.31134   -1367.7298    406.32603    418.27009    323.08911    36500.952 
   40300    306.07997   -1410.9099    364.21485    336.45217   -64.045736    36500.952 
   40400    305.51805   -1348.7773    400.69898    432.52969   -151.32579    36500.952 
   40500    299.45817   -1373.5195    404.64115    384.34561    211.12667    36500.952 
   40600    305.54451   -1354.9127    410.16153    435.97644   -174.03983    36500.952 
   40700    306.56052   -1319.6968    407.25997    472.88191    266.07631    36500.952 
   40800    292.72582    -1348.685    395.95059    370.06662    215.54576    36500.952 
   40900     298.3795   -1389.5679    397.84943    356.63107     205.5855    36500.952 
   41000    309.37943   -1347.5598    404.25774    454.75519    403.94329    36500.952 
   41100    308.53473    -1366.006    382.83891    411.07297    165.28687    36500.952 
   41200    290.00454   -1361.2172    381.79241    331.07909   -299.80118    36500.952 
   41300    305.71373   -1375.3955    367.31669    373.41346   -184.45515    36500.952 
   41400    281.65076    -1410.905    381.37231    243.22124   -441.22521    36500.952 
   41500    297.32109   -1398.4722    408.18955    353.28407     39.83402    36500.952 
   41600    303.18174   -1398.5413     378.6869    350.19599    4.7303524    36500.952 
   41700    295.52481   -1358.1648    415.42181    392.70641    2.1090325    36500.952 
   41800    293.51352    -1340.971    421.08455    406.47415   -489.42485    36500.952 
   41900    298.76514   -1383.4238    418.92613    385.59457   -90.835997    36500.952 
   42000     298.4815   -1406.9435    376.94853     318.8155    86.735804    36500.952 
   42100    304.95621   -1338.5432     366.4875    406.01332     228.8463    36500.952 
   42200    298.34737   -1336.9603    407.39196    418.63593    89.502581    36500.952 
   42300    297.72951   -1354.7728    403.83362    394.47311    447.65551    36500.952 
   42400    299.56205   -1344.8856    382.95898    391.76674    177.75543    36500.952 
   42500    299.00764   -1359.5168    406.80931     398.4806    604.87051    36500.952 
   42600    305.91444   -1366.9228    371.75297    387.22938     460.9077    36500.952 
   42700    306.67251   -1394.4049    374.38709    365.80701    456.34824    36500.952 
   42800     299.3393   -1385.2399    399.60162    367.04849    834.27004    36500.952 
   42900    280.69234   -1369.6706    413.06835    311.82066    846.29797    36500.952 
   43000    301.37217   -1386.2265    403.67326    379.31987    847.29542    36500.952 
   43100     294.6025   -1316.1776    406.29331    421.39732    854.59583    36500.952 
   43200    297.44915   -1364.2253    407.57051    387.49054    571.76143    36500.952 
   43300    301.91671   -1369.9223    425.79237    420.20391    686.19213    36500.952 
   43400    298.84268   -1412.7447    421.63572    359.33365    466.73815    36500.952 
   43500    300.64732   -1311.0733    418.28896    465.81325    1299.5029    36500.952 
   43600    312.74567   -1362.3389    387.25143    438.18147    1038.2108    36500.952 
   43700    309.76324   -1422.9158     411.1472      388.023     687.7714    36500.952 
   43800    296.59911   -1401.6266    398.52878    337.20629    435.98257    36500.952 
   43900    297.99797   -1378.2005    404.50094     372.9259     322.3335    36500.952 
   44000    299.25307   -1390.1697     399.9142    362.04162    289.43324    36500.952 
   44100    293.88801   -1373.5864    394.65929    349.12579     446.7637    36500.952 
   44200    303.45603   -1320.4073    424.47118    475.35379   -3.8604598    36500.952 
   44300    309.45721   -1377.2481    415.05431    436.21489   -274.43286    36500.952 
   44400    296.31399   -1394.9585    408.37989    352.43701   -651.39374    36500.952 
   44500    293.79763   -1366.9615    419.07873    379.76172   -898.22417    36500.952 
   44600    309.20025   -1368.0339    417.72873    446.94229   -71.339083    36500.952 
   44700     301.6321   -1364.9048    417.06696    415.20982   -495.26468    36500.952 
   44800    293.29425   -1335.5509    416.67173    406.49055   -65.699565    36500.952 
   44900      298.252   -1330.1441    404.55569    422.18496   -355.86241    36500.952 
   45000     295.5132    -1348.517    411.71857    398.59856    406.98584    36500.952 
   45100    311.93751   -1357.7117    411.20474    463.10999    487.84597    36500.952 
   45200    309.31529   -1353.7202    403.35711    447.40429    752.39486    36500.952 
   45300    303.95278   -1335.3913    403.52755    441.67092    736.32058    36500.952 
   45400    299.55917   -1337.7287    420.88307    436.83474    534.79823    36500.952 
   45500    296.94237   -1322.8473    381.87303    400.88095    330.11223    36500.952 
   45600     300.0122   -1321.8824    389.60338    423.44855    457.77267    36500.952 
   45700    299.27322   -1329.6436    399.51371    422.25827    72.977385    36500.952 
   45800    297.34863   -1298.2982    388.18607    433.57899    211.30593    36500.952 
   45900    294.31531   -1345.0553    381.91013    366.83867   -241.28548    36500.952 
   46000    301.60864   -1328.4382    408.82634    443.32988   -145.44606    36500.952 
   46100    303.89026   -1326.0046    411.38066    458.62821    319.63541    36500.952 
   46200     295.4147     -1343.91    405.11552    396.15742    174.75354    36500.952 
   46300    297.00127   -1333.8675    402.04619    410.30006     28.04721    36500.952 
   46400    301.14333    -1327.697    400.31776    433.45976   -360.45292    36500.952 
   46500    295.90007   -1353.4054     392.7018    376.44165   -182.34893    36500.952 
   46600     300.7723   -1331.2407    401.65516    429.57682    349.80202    36500.952 
   46700      311.973   -1344.4175    398.86794    464.22768    124.86407    36500.952 
   46800    296.96685   -1357.2197    415.95925    400.70543    560.80838    36500.952 
   46900    299.35444   -1357.8491     415.4267    410.33276     338.6413    36500.952 
   47000    299.13562   -1428.8963    389.63302    312.50307    463.17909    36500.952 
   47100    307.13356   -1357.8734    406.49273    436.52766    236.14375    36500.952 
   47200    302.68348   -1385.0534    422.87067     405.6161    159.25867    36500.952 
   47300    304.88685   -1398.4109    404.07574    383.42044    70.338319    36500.952 
   47400    300.56764   -1364.5157     417.2399    410.96174    474.35412    36500.952 
   47500    308.78181   -1351.7158    418.48171    462.12249    787.91545    36500.952 
   47600    295.03641    -1344.547    409.90291    398.59828     355.7481    36500.952 
   47700    297.87321   -1371.4924    409.31856    383.88775    501.23065    36500.952 
   47800    296.41873   -1369.3503    416.48448    386.62319    433.18785    36500.952 
   47900    304.50979   -1331.0064    408.32071    453.36602    421.13444    36500.952 
   48000    304.42038   -1299.5917    423.33167     499.3877    226.74208    36500.952 
   48100    301.79021   -1343.1797    417.27981    437.86232   -315.80623    36500.952 
   48200    305.57298   -1335.4531    408.82846    454.23155   -591.89762    36500.952 
   48300    307.33284   -1353.1872    404.53052    440.15217   -25.658328    36500.952 
   48400    302.92718   -1398.4438    399.95259    370.40884    395.35496    36500.952 
   48500    312.74971    -1368.587    413.57536    458.27554    288.43217    36500.952 
   48600    292.92974   -1367.8449     436.8092    392.68681   -360.83033    36500.952 
   48700    298.55164   -1360.9459    401.65943    389.84098   -15.071791    36500.952 
   48800    304.10669   -1406.4673    409.82573    377.58857   -264.21143    36500.952 
   48900    294.31656   -1377.4183    424.08601    376.65713   -92.527459    36500.952 
   49000    292.52893   -1343.0424    416.05057    394.91953   -468.21266    36500.952 
   49100     304.7389   -1339.0875    439.35767    477.35723    83.546768    36500.952 
   49200    308.22551   -1330.1113    441.88181    504.61326    82.865342    36500.952 
   49300    288.24774   -1324.3239    434.71003    412.95111      331.528    36500.952 
   49400    300.80839   -1350.2134    430.32226    439.43428    -744.8289    36500.952 
   49500    308.01707   -1323.9902    403.58302    471.49366     -275.941    36500.952 
   49600    308.62218   -1366.7291     407.3262    435.23232   -18.948406    36500.952 
   49700    307.55052   -1305.8458    410.99826    494.94495    88.042448    36500.952 
   49800    301.41848   -1305.9124    436.91806    493.08802   -386.28342    36500.952 
   49900    306.09375   -1360.4626     404.6374    427.38432    312.15303    36500.952 
   50000     303.5152   -1392.6692    434.29041    413.17844    687.95024    36500.952 
   50100    300.80468   -1396.4209    426.48577    389.37357    1058.9616    36500.952 
   50200    295.56306    -1364.017    419.17362    390.77888    650.18742    36500.952 
   50300    295.24694   -1357.1945    413.70398    390.70322    260.40317    36500.952 
   50400    291.05169   -1360.4683    450.90904     405.6766   -113.36502    36500.952 
   50500    300.87454   -1353.9142    438.10834    443.81853   -220.63992    36500.952 
   50600    284.83238   -1336.8979    412.52307    362.75648    -79.81365    36500.952 
   50700    309.29925   -1345.1538    426.94994      479.491   -192.89877    36500.952 
   50800    311.00093   -1366.3018    424.69083    463.77359   -125.16634    36500.952 
   50900    298.74874   -1332.0302    438.13281    456.12071    253.25359    36500.952 
   51000    295.26245   -1350.9678    426.30538    409.60143    202.17417    36500.952 
   51100    299.48455   -1320.7075    428.10948    460.74512    247.62552    36500.952 
   51200    299.67902    -1354.886    450.37413    449.71004    442.04858    36500.952 
   51300    295.12522   -1374.8445     433.9936    392.79276     284.8048    36500.952 
   51400    303.76155   -1388.4753    428.75077    412.94593   -5.0156644    36500.952 
   51500    292.81965   -1388.3124    421.75792    356.67058    438.27901    36500.952 
   51600    298.99468   -1374.5909    423.39538    399.93394    194.65667    36500.952 
   51700    302.17707    -1400.453    428.74584    393.80316   -173.33827    36500.952 
   51800    308.20073   -1382.6166    422.10673    432.22086    480.80147    36500.952 
   51900    305.98691   -1381.0474    419.16924    420.84857    167.87339    36500.952 
   52000    302.99783   -1386.9062    442.15984    424.47299    681.21742    36500.952 
   52100    296.93681   -1414.1627    440.47915    368.14656    815.49506    36500.952 
   52200    303.60209   -1421.9028    425.09309    375.14022     690.8925    36500.952 
   52300    296.47229   -1350.7754    426.46171    415.41736    1167.2774    36500.952 
   52400    306.94195   -1394.0737     412.5886    405.55733    615.64261    36500.952 
   52500    296.05415   -1366.1765     436.8799    408.54489    147.31526    36500.952 
   52600    298.98954   -1384.1637    437.98215    404.92467    821.62741    36500.952 
   52700     296.9858   -1426.4459    431.54535    347.15097    431.13151    36500.952 
   52800    288.98167   -1374.7289    416.80604    347.95868    544.57411    36500.952 
   52900    292.93353   -1405.5907    445.48048    363.62943    629.09001    36500.952 
   53000    303.36138   -1381.0931    440.46486    430.23398    175.42663    36500.952 
   53100    307.75211   -1343.2869    426.49367     473.9103    848.35439    36500.952 
   53200    300.75371   -1428.9798    429.39376     359.4923    567.28621    36500.952 
   53300    311.75635   -1383.5629    439.41582    464.65115    1044.2109    36500.952 
   53400    306.94244    -1361.713    452.84192    478.17363    336.11137    36500.952 
   53500     291.6309   -1372.9795    434.05358    378.92731    91.693776    36500.952 
   53600    303.46825   -1434.0829     395.0838    332.34601     686.5169    36500.952 
   53700    304.63799   -1461.0261    433.67443    349.27938    208.35115    36500.952 
   53800    308.60804   -1433.8875    440.37735    401.06118    410.94226    36500.952 
   53900    295.23893   -1403.3445    427.65691    358.46998    606.27536    36500.952 
   54000    295.18401   -1410.8737    451.64787    374.68357    485.86322    36500.952 
   54100    299.45351     -1424.41    433.95491    362.74778   -54.023815    36500.952 
   54200     306.3601   -1416.8193    429.70511    397.29896    205.84217    36500.952 
   54300    294.46286   -1363.9479     428.9987    395.70138    179.98282    36500.952 
   54400    305.05381   -1394.4321    441.51865    425.59664    358.96073    36500.952 
   54500    311.48542   -1378.3966    432.38397    461.56127    128.70004    36500.952 
   54600     310.0895   -1386.4731    458.81229    473.60513    86.888242    36500.952 
   54700    294.84205   -1407.1237     415.2784     340.5188    89.718113    36500.952 
   54800    310.98217   -1342.9648    418.49694    480.83192   -341.31164    36500.952 
   54900    301.23603   -1369.1564     424.4806    416.58209   -717.26418    36500.952 
   55000     302.3395   -1357.4291    456.17221    464.98753   -157.01372    36500.952 
   55100    298.12137   -1354.4312     417.0479    409.79978   -29.995862    36500.952 
   55200    304.54892   -1343.0245    423.25726    456.46126    508.03293    36500.952 
   55300    294.70862   -1362.0319    436.26036    405.98961    686.34427    36500.952 
   55400    315.83873   -1409.1206    441.63348    459.75907    276.88007    36500.952 
   55500    303.09221   -1408.0413    442.31925    403.92374     382.6943    36500.952 
   55600    295.36301   -1381.0938    444.87327    398.49773   -212.37372    36500.952 
   55700    292.60109   -1396.1014    449.90138    376.03743    602.12147    36500.952 
   55800    309.69692   -1354.2965    462.13917    507.33452    1166.6076    36500.952 
   55900    295.00139   -1335.2026    453.69743    451.57904    877.75855    36500.952 
   56000    301.81178   -1377.4819    450.41077    436.78857    284.33193    36500.952 
   56100     300.8629   -1415.5348    451.38165    395.41866   -126.83356    36500.952 
   56200    306.40225   -1381.7749    438.99735    441.82607    101.73268    36500.952 
   56300    295.85358   -1392.7529    429.75231    373.93452    173.06704    36500.952 
   56400     310.5966   -1401.3101    429.48057    431.72798    722.90102    36500.952 
   56500    295.28024   -1396.6741    415.75035     353.4205    370.47767    36500.952 
   56600    303.83518   -1446.0728    433.95812    360.88861    692.89733    36500.952 
   56700    300.82419   -1395.8151    454.91334    418.49513    475.11123    36500.952 
   56800    296.65245   -1418.2134    456.73214    379.06383   -274.24539    36500.952 
   56900    300.99319   -1447.6994    428.73606    341.19721   -204.98706    36500.952 
   57000    300.22979   -1407.0402    455.93228    405.60289    -331.9282    36500.952 
   57100    296.54366   -1372.0926    432.38807    400.34903   -15.732148    36500.952 
   57200    305.96522   -1416.9683    439.68578    405.34619    243.20462    36500.952 
   57300    296.18245   -1419.1264    445.75732    365.05218     163.5766    36500.952 
   57400    311.49434   -1437.7136    434.99077    404.89141    231.98053    36500.952 
   57500    297.77089    -1425.806    452.63263    372.42587   -183.82189    36500.952 
   57600    297.45406   -1399.6941    454.98038    399.45383    39.515546    36500.952 
   57700    295.07273   -1367.5312    464.92709    430.80245   -608.18316    36500.952 
   57800    287.19729   -1396.6428    433.91736    335.09269   -275.52685    36500.952 
   57900    309.10666   -1377.8731    449.18322    468.13467   -181.52157    36500.952 
   58000    286.20304   -1391.8822    442.62474    344.06773   -343.35529    36500.952 
   58100    293.69536   -1432.0263    445.38375    340.53978   -557.23654    36500.952 
   58200    301.33315   -1403.7699    473.32994    431.25685    -142.4627    36500.952 
   58300    305.04722   -1408.9099     442.1383    411.70875   -532.80398    36500.952 
   58400    294.43472   -1371.2571    468.32412    427.59043   -498.22184    36500.952 
   58500    300.12378   -1418.3558    445.63074    383.50673    1.1027455    36500.952 
   58600    315.78863   -1422.9298    460.13857    464.22849   -171.55441    36500.952 
   58700    302.31303   -1393.2958    450.81645    423.64541    119.71604    36500.952 
   58800    305.74229   -1391.3429    448.69549    438.97385   -126.55967    36500.952 
   58900     297.6159   -1453.9377    438.39068    329.35186     169.1282    36500.952 
   59000    308.75623   -1430.5135    430.70565    395.43311    267.11515    36500.952 
   59100    315.23446   -1403.8478    432.21447    452.88216    333.04195    36500.952 
   59200    292.66425   -1387.1892    448.74504    384.07862    668.72441    36500.952 
   59300    295.83192   -1399.9959    440.06316    376.90452    239.33329    36500.952 
   59400    301.90157   -1428.6853    445.15817    380.73825    82.251326    36500.952 
   59500    313.94496   -1467.5217    437.89019    389.05692    40.559696    36500.952 
   59600    299.10097   -1422.5858    439.54653    368.57054   -6.3873768    36500.952 
   59700     307.7918   -1428.0631    422.63908    385.45883   -346.60786    36500.952 
   59800    301.70013   -1404.9697    440.00603     398.3915   -160.79816    36500.952 
   59900    298.55575   -1427.3361    440.36881    362.17867   -160.22812    36500.952 
   60000     301.6852   -1413.3231    451.25228    401.21688    146.01757    36500.952 
   60100    297.13674   -1415.8047    429.98809    356.91699    243.07603    36500.952 
   60200    291.85828   -1425.8283    434.83733    327.88971    672.67928    36500.952 
   60300    300.46031   -1423.7238    474.34369    408.37241    507.06027    36500.952 
   60400    308.62622   -1401.6057    466.93754    459.98533    210.52462    36500.952 
   60500    303.38737   -1407.7162    442.92216    406.18557    220.25165    36500.952 
   60600     303.3605   -1449.9002    458.54446    379.50251    417.78496    36500.952 
   60700    293.23797   -1414.6945    452.63765    363.05861    445.67153    36500.952 
   60800    294.93441   -1451.6095    425.43401    306.60597    177.64687    36500.952 
   60900    298.27493   -1414.3042    462.10312    395.67589    253.19001    36500.952 
   61000    291.63363   -1423.5542    447.98723    342.29862   -72.884694    36500.952 
   61100    299.28331   -1432.0452    424.96816    345.35677    349.49008    36500.952 
   61200    308.65736   -1394.0429     455.3638    456.11509   -135.80309    36500.952 
   61300    308.20147    -1380.146    444.91523    457.50333   -462.52218    36500.952 
   61400    298.75432   -1359.2271    446.26281    437.07898   -749.61824    36500.952 
   61500     302.5743   -1414.1081     430.7936    383.99092   -302.29682    36500.952 
   61600    302.44949   -1429.1666    441.50774    379.08258   -464.49341    36500.952 
   61700    308.27439   -1438.7792    450.05865    404.34312    -133.9119    36500.952 
   61800     307.1961   -1480.6773    425.01321    332.52687    72.775323    36500.952 
   61900    294.02718   -1538.2757    412.25316    202.65928   -351.34923    36500.952 
   62000    296.55834   -1479.9748    428.27974    288.42476   -135.70915    36500.952 
   62100    306.23613   -1521.7508    443.30632    305.40841   -51.712297    36500.952 
   62200    300.38631   -1476.9708    418.63217    299.07944    -557.0528    36500.952 
   62300    304.74512   -1459.3993    415.04687    332.76272   -1084.0638    36500.952 
   62400     289.3895   -1430.0124    444.20503    321.91717   -668.82674    36500.952 
   62500    300.43104    -1460.954     446.3413    343.00755    -362.6066    36500.952 
   62600    298.52777   -1475.1224    451.81587    325.71303   -409.71992    36500.952 
   62700    304.02386   -1427.0818    448.74533    395.51944    65.534648    36500.952 
   62800    298.97385   -1491.2117    443.15119    302.97483    -172.0367    36500.952 
   62900    296.97008    -1439.883    435.24172    337.33917    416.51222    36500.952 
   63000    300.71755   -1416.1285    465.35429    408.14071    93.423699    36500.952 
   63100    306.38273   -1423.0151    445.25686     406.7571   -367.45682    36500.952 
   63200    311.47874   -1420.2298     445.3859    432.69987   -90.823951    36500.952 
   63300    312.93034   -1430.6367    463.46759     446.9343   -577.55238    36500.952 
   63400    297.54939   -1400.7809    454.90832    398.72577   -269.01317    36500.952 
   63500    311.84567   -1413.8973    472.95857    468.26315    89.734256    36500.952 
   63600    292.87539   -1358.9462    476.80692    441.33772   -334.28516    36500.952 
   63700    301.19965   -1357.5327    499.57234    503.13315    345.66816    36500.952 
   63800    309.53613   -1383.7988    463.29994    478.26646    106.01786    36500.952 
   63900    301.03059   -1361.4315    470.55337    469.45148    31.792123    36500.952 
   64000    300.48714   -1396.9551    445.92038    406.83899    6.7819034    36500.952 
   64100     300.5808   -1394.1571    449.73291    413.87278   -225.38805    36500.952 
   64200     294.1916   -1403.8396    445.75376     371.3389     568.6916    36500.952 
   64300    294.87896    -1397.575    454.97407       389.93   -82.747831    36500.952 
   64400    291.12023   -1386.5526     463.5553    392.54818      33.1999    36500.952 
   64500    288.54685   -1412.5293     451.8017    343.18909   -9.2706899    36500.952 
   64600    294.60213   -1433.9044    467.81569    365.19122   -229.46135    36500.952 
   64700    305.63331    -1395.229    451.21393    437.11375    41.797948    36500.952 
   64800    301.69944   -1396.8973    458.17871    424.63342    -759.0094    36500.952 
   64900    304.29594   -1400.2052    461.57177    436.45193   -1160.5898    36500.952 
   65000    306.68021   -1382.0008    436.79536    440.65419   -1166.6916    36500.952 
   65100    311.30922   -1400.8374    457.83193    463.77225   -373.04676    36500.952 
   65200    292.33022   -1393.8918    443.23895    370.36049     62.29016    36500.952 
   65300    303.97941    -1418.431    444.28991    399.51393   -426.08208    36500.952 
   65400    304.04325   -1398.5995    441.12447    416.46851   -553.84949    36500.952 
   65500    295.78325    -1391.166    451.97168    397.42294   -164.80595    36500.952 
   65600    302.47616   -1406.7299    474.25044    434.38252   -261.34121    36500.952 
   65700    296.04656   -1368.8469    436.90094    405.86124   -622.94669    36500.952 
   65800    297.42447   -1399.0304    406.88685    351.89031   -429.40913    36500.952 
   65900    295.07373   -1406.6258    439.53079    366.31607   -649.28632    36500.952 
   66000    306.59054    -1415.477    462.27378    432.25121   -616.16422    36500.952 
   66100    293.96949   -1438.1197    477.14534    367.44673   -909.98442    36500.952 
   66200    299.48374   -1435.4906    437.34227    355.19111     55.67236    36500.952 
   66300    308.33053   -1427.1727    456.54199    422.68659    775.96459    36500.952 
   66400    304.62305    -1413.687    455.33843    418.21497    1095.5979    36500.952 
   66500    296.38244   -1380.6508    453.13426    411.80851    718.40847    36500.952 
   66600    294.98587   -1427.6788    440.37805    345.71327    458.58478    36500.952 
   66700    299.60499    -1432.392    457.41912    378.91457   -57.875992    36500.952 
   66800    294.91653   -1425.3252    461.11153    368.48698    16.618121    36500.952 
   66900    298.92705   -1407.0908    437.91246    381.64547     93.97821    36500.952 
   67000    290.08212   -1397.8335    436.87023    349.89112   -206.33057    36500.952 
   67100     301.5237   -1384.2682    474.98196    453.27167   -268.74216    36500.952 
   67200    298.70118   -1374.2896    450.82311    426.33669    28.476924    36500.952 
   67300      303.294   -1367.3656    453.60261    456.79474    851.83672    36500.952 
   67400    304.00686   -1343.9905    447.88374    477.67232    380.31842    36500.952 
   67500    292.84565   -1351.3347    453.53081    425.53865    316.15163    36500.952 
   67600     302.4462   -1375.5877    442.70676    433.84558   -5.3182945    36500.952 
   67700    287.92341   -1330.8057    472.41326      442.707   -256.50924    36500.952 
   67800    299.86704   -1365.8139    454.96735    444.22496   -347.29851    36500.952 
   67900    305.85019   -1357.0303    456.35357    481.43221    199.30945    36500.952 
   68000    305.43593     -1371.35    449.94741    458.83434   -320.09323    36500.952 
   68100    290.76065   -1402.7013    454.37674    365.59602    4.6689818    36500.952 
   68200    305.73231   -1318.9865    449.58229      512.172   -59.301511    36500.952 
   68300     304.2679   -1348.2834    450.72404    477.39929    449.40768    36500.952 
   68400    299.87965   -1382.8701    445.63572    417.89422    396.84894    36500.952 
   68500    296.98544   -1355.8627    431.38338    417.57055   -85.853011    36500.952 
   68600    306.30897    -1406.664    430.41307    407.93114     244.6877    36500.952 
   68700    304.03267   -1417.7917     417.9081    374.01207    230.66246    36500.952 
   68800     305.6454   -1414.5837    439.84751    406.44725    395.29468    36500.952 
   68900    302.11945   -1368.1516    476.96224    474.06061     253.5211    36500.952 
   69000    294.83224   -1362.4553     457.2686    427.13308    -73.48435    36500.952 
   69100    297.35673   -1359.5754    443.63865    427.79096    119.76674    36500.952 
   69200    304.01689   -1370.8656    452.15631    455.11513    454.24679    36500.952 
   69300    283.51146   -1405.5077    414.17479    289.82931    451.40332    36500.952 
   69400    299.11607   -1371.0888     443.9712    424.56046    299.85544    36500.952 
   69500    300.73747   -1378.9223    450.56891    430.65161    181.61302    36500.952 
   69600     296.0588   -1404.8759    447.00418    379.99079    275.34127    36500.952 
   69700    301.17031   -1373.6878    459.52405    446.79717    635.18763    36500.952 
   69800    301.58872   -1401.1489    465.86787    427.57063    647.59603    36500.952 
   69900    302.71143   -1398.6498    433.88764      403.163       575.45    36500.952 
   70000     295.7982   -1370.1429    445.73906    412.28098    399.18399    36500.952 
   70100    309.85442   -1425.7197    448.64438    423.12832    902.23079    36500.952 
   70200    297.59708   -1434.8921    455.80527    365.72699    361.14659    36500.952 
   70300    296.05469   -1394.2049    454.31622    397.95527    697.05494    36500.952 
   70400    305.08009   -1398.5098    443.23473    423.35379     324.3478    36500.952 
   70500    306.25968    -1387.615    450.04094    446.38525    1219.9481    36500.952 
   70600    306.07795    -1377.206    456.90552    462.83756     674.4685    36500.952 
   70700    297.66579   -1382.7351    453.20813     415.5973    364.29176    36500.952 
   70800    298.46291   -1402.4753    462.54144    408.79263    14.693101    36500.952 
   70900    289.85128    -1396.542    428.46159    341.73084    377.62244    36500.952 
   71000    300.10666   -1383.9372    451.44653    423.66367    385.92934    36500.952 
   71100    307.02448   -1397.8267    446.36303    435.95168    650.47467    36500.952 
   71200    290.79105    -1417.484    448.49553    345.06953    287.51037    36500.952 
   71300    302.77586   -1432.2475    433.93248     369.9012    176.13249    36500.952 
   71400     299.4328   -1397.8004    456.09313    411.40202     299.4924    36500.952 
   71500    304.55687   -1429.1786     439.5689    386.65477    27.244029    36500.952 
   71600    296.37163   -1390.5968    461.69236    410.37166    10.514355    36500.952 
   71700    302.69665   -1393.1955    457.13678    431.79965    266.20299    36500.952 
   71800    297.71435   -1424.2593    432.49874    353.58326     481.4022    36500.952 
   71900    292.68392   -1418.2085    440.30237     344.7056    753.15232    36500.952 
   72000    297.01811   -1425.6755    448.91773    365.43977    744.45981    36500.952 
   72100    295.82016   -1418.3807     434.7999    353.20328    278.63369    36500.952 
   72200     301.2861   -1427.0397     446.4115      380.856    244.29906    36500.952 
   72300    299.18648   -1403.0776    450.66862    399.58716    801.67987    36500.952 
   72400    303.91875   -1410.3795    435.06043    398.06178    688.10745    36500.952 
   72500    303.92656   -1374.4359     444.3154    443.29566    233.22895    36500.952 
   72600    302.78931   -1362.4133     436.8519    442.71562    216.59508    36500.952 
   72700     305.7101   -1351.1515    453.07342    483.39774   -639.63032    36500.952 
   72800     290.1009   -1324.0175    452.15748    439.07923   -65.252912    36500.952 
   72900    309.29812   -1364.3128    471.21878    504.59572    -135.9165    36500.952 
   73000    300.47957   -1392.6175    412.02402    377.24604    2.2741564    36500.952 
   73100    299.65856   -1420.5935    464.45925    397.99521   -156.18662    36500.952 
   73200    303.72521   -1434.1158    458.94842    397.33886   -288.37955    36500.952 
   73300    297.77559   -1445.8842    450.83029    350.56653   -302.40635    36500.952 
   73400    293.10594   -1390.3664    448.89114    383.04347   -163.55446    36500.952 
   73500    290.43579   -1392.8849    443.27048    362.83824    300.15821    36500.952 
   73600    305.10145   -1409.8107    436.98069    405.89542    461.03722    36500.952 
   73700    303.53415    -1438.368    427.01761    360.29247   -227.12222    36500.952 
   73800    292.33694   -1400.2558    453.77424    374.56216    -205.8618    36500.952 
   73900    303.42137   -1446.9889    432.33697    356.48134   -96.150661    36500.952 
   74000    293.69053   -1414.0891    449.26311    362.33455   -151.00102    36500.952 
   74100    304.89315   -1411.3971    464.18638    430.57332    364.81231    36500.952 
   74200    300.77203   -1409.7356    434.81129    384.23684    608.87672    36500.952 
   74300    298.52598   -1406.7901    441.22281    383.44422    657.33612    36500.952 
   74400    300.17383   -1405.7063    454.02456    404.77618    619.18912    36500.952 
   74500    305.67396    -1428.878    471.15598     423.5905    59.398017    36500.952 
   74600    299.51249   -1437.4176    427.55308    343.60493   -136.77237    36500.952 
   74700     302.5763   -1461.6046    434.50446    340.21434   -237.92281    36500.952 
   74800    294.26215   -1444.6816    441.87634    326.93831   -11.997454    36500.952 
   74900    290.72801   -1469.2562    449.46974    293.98674   -35.093507    36500.952 
   75000    304.79185   -1475.1401    467.10167    369.28791    29.509926    36500.952 
   75100    309.84688   -1404.4477    443.15106    438.87297    332.73468    36500.952 
   75200    300.25548   -1427.0703    457.60829    387.36491     860.2805    36500.952 
   75300     298.2608   -1435.7179    448.06103    360.15628    251.98806    36500.952 
   75400    301.10077    -1443.117    472.99196    390.52168    222.17741    36500.952 
   75500    302.78536   -1423.3542    467.55909    412.46404    283.64507    36500.952 
   75600    296.30051   -1425.3634    450.12697    363.71837    618.08268    36500.952 
   75700    295.65033   -1401.8496    438.21998    372.38701    615.83796    36500.952 
   75800    305.85201   -1428.3754    456.42112    410.16283    352.01279    36500.952 
   75900    296.17677   -1463.4313    477.17132    352.13563    353.31024    36500.952 
   76000    301.93043   -1458.5101    450.28183    356.16759    699.48808    36500.952 
   76100    299.39112   -1442.1781    468.38726    379.13011    254.64209    36500.952 
   76200    300.23422   -1433.0642    451.15762    374.82422    520.39832    36500.952 
   76300    304.46639   -1409.5871    471.08236    437.35084    28.786017    36500.952 
   76400    296.94071   -1395.0284    472.85422    419.67355   -108.09897    36500.952 
   76500    306.81761   -1394.0323    452.34609    444.79432   -181.43495    36500.952 
   76600    290.26211   -1433.6515    467.06177    345.07803   -194.10013    36500.952 
   76700    305.45395   -1488.0843    469.52067    361.75466   -720.37476    36500.952 
   76800     298.5911   -1476.2336    462.66999    335.74212   -180.89336    36500.952 
   76900    301.83387   -1440.3472    431.09974    354.71204    297.25311    36500.952 
   77000    295.89669   -1413.8235    459.17154    382.47803    399.47514    36500.952 
   77100    291.00979   -1444.9523    458.71116    328.80533   -504.27529    36500.952 
   77200    298.98645   -1426.3558    461.15318    385.88964    78.955238    36500.952 
   77300    307.25061   -1463.2016    439.79872    365.03437    8.6199949    36500.952 
   77400    297.31103   -1424.8519    461.24628    379.91562    273.16983    36500.952 
   77500    300.79806   -1424.5721    468.06406    402.77077   -223.95334    36500.952 
   77600    297.23821   -1466.6922    442.78705    319.28696   -377.30292    36500.952 
   77700    307.49114   -1392.0841    463.07068    460.51072    382.26929    36500.952 
   77800    311.22668    -1362.412    478.39073    522.38342    73.064183    36500.952 
   77900    290.95871    -1404.115    466.63683    377.33752   -233.77846    36500.952 
   78000    291.13465   -1409.8751    462.21043    367.94601   -235.86328    36500.952 
   78100    298.28156   -1404.0388    444.36112    388.22927   -380.36947    36500.952 
   78200    305.16111   -1376.9371    488.01885    490.07674   -92.724382    36500.952 
   78300    291.91396   -1364.4508    459.43776    414.11925   -137.86596    36500.952 
   78400      295.396   -1415.4801    445.28694    364.67417   -33.412078    36500.952 
   78500    300.57897   -1449.4716    473.83647    382.65358   -901.77971    36500.952 
   78600    306.29294   -1418.0057    443.21808    409.32197   -318.40442    36500.952 
   78700    299.77079   -1395.6786    468.69199       427.65   -16.128972    36500.952 
   78800    295.98579   -1416.5886    468.71015    389.65406   -309.50191    36500.952 
   78900    304.66747    -1448.211    456.81116    385.36447    104.51558    36500.952 
   79000    296.45176   -1421.1601    470.68102    389.15916   -308.91834    36500.952 
   79100    302.80982   -1384.2618    481.49547    465.60339    45.297369    36500.952 
   79200     307.2927   -1388.4827    471.10126    471.24603   -152.34102    36500.952 
   79300    293.75813    -1370.732    488.75512    445.48913   -137.42742    36500.952 
   79400    290.31846   -1408.8111    492.26998    395.38126    -658.0668    36500.952 
   79500    311.19768   -1410.3719    455.96859    451.87043   -433.49553    36500.952 
   79600    297.51376   -1387.1847    463.50748    420.76007   -255.32656    36500.952 
   79700    288.35659   -1403.1864    474.07486    373.94541   -745.10243    36500.952 
   79800    300.54151   -1419.0201    492.02698    431.12633   -158.23225    36500.952 
   79900    294.67846   -1416.5772    472.63993    387.68765    397.44366    36500.952 
   80000    299.39728   -1457.1877    448.66569    344.42676   -53.281112    36500.952 
   80100    299.96405   -1437.5293    456.89098    374.87162   -180.23454    36500.952 
   80200    292.85197   -1426.7753    469.79062    366.38648    -386.3182    36500.952 
   80300    294.52112   -1401.1439     492.7085    422.47847   -12.875857    36500.952 
   80400    290.85863   -1410.0796    449.84386    354.12768     144.8667    36500.952 
   80500    290.88812   -1429.2893    453.13431    338.34161    306.35201    36500.952 
   80600    300.59155    -1430.309    463.35851     391.3951    167.57658    36500.952 
   80700    296.40194   -1439.2357     449.0303    349.20766   -311.16108    36500.952 
   80800    303.86814   -1389.4935    479.16813    462.82682    121.02008    36500.952 
   80900    301.13824   -1388.4344    471.04659    443.42824    291.81888    36500.952 
   81000    293.29147   -1373.2654    461.58702    413.67876   -244.41805    36500.952 
   81100    290.89144   -1392.2289    472.16606    394.44881    -375.8958    36500.952 
   81200    290.75903   -1446.0236     477.7331    345.62278   -217.09713    36500.952 
   81300     311.1389   -1451.7609    462.93897    417.18612    274.97107    36500.952 
   81400    302.53461   -1449.7943    466.88198    384.21378   -733.69601    36500.952 
   81500    298.16086   -1395.1008    449.11126    401.37199   -655.44081    36500.952 
   81600    297.46243   -1415.8646    441.93922    370.27996   -703.59759    36500.952 
   81700    308.73141   -1422.5021    459.85782    432.48461    -125.9089    36500.952 
   81800    297.53624   -1408.2675    474.04734     410.3187   -38.297661    36500.952 
   81900     300.8023   -1442.7922    455.71781    372.22357   -41.501109    36500.952 
   82000    295.57296    -1446.631    449.45019     338.4862   -74.771609    36500.952 
   82100    294.85325   -1418.1731    510.46773    424.70933    325.16959    36500.952 
   82200    309.14949   -1406.7026    478.36893    468.68448    35.867402    36500.952 
   82300    301.27829   -1411.7209    467.71012    417.43807    66.327198    36500.952 
   82400    300.64882   -1414.2514    475.95744    420.31038   -74.819143    36500.952 
   82500    309.90262   -1402.5033     448.8147    446.73282   -387.87927    36500.952 
   82600    300.31845   -1417.0243    464.23391    404.32107   -579.91295    36500.952 
   82700    300.63055   -1461.7759    440.96532    337.71123    45.373366    36500.952 
   82800    300.09585   -1468.0463    465.66149    353.72077    317.13919    36500.952 
   82900    302.79394   -1499.4877    460.16067    328.97094   -511.69113    36500.952 
   83000    299.62049   -1455.4579    456.66142    355.16101    361.96629    36500.952 
   83100    301.33303   -1432.6819    455.27781    384.29213   -42.198922    36500.952 
   83200    298.60089   -1473.4111    466.47271    342.41162    632.89033    36500.952 
   83300    299.09657   -1457.1344    454.77114    349.22659     114.1581    36500.952 
   83400    290.34643   -1435.9815    478.21919    354.28647    721.30311    36500.952 
   83500    301.12254   -1463.8438    479.95168    376.85298    887.35028    36500.952 
   83600    300.54695   -1426.2168    447.98426    379.91148    969.30278    36500.952 
   83700    308.87998   -1435.8789      443.643    403.56431    811.77507    36500.952 
   83800    291.39081   -1462.2147    469.63957    324.19311    306.39768    36500.952 
   83900    302.47957   -1470.6634    480.49965    376.71362    231.31455    36500.952 
   84000     292.1387   -1460.4032    460.41126    320.15601    266.60781    36500.952 
   84100    291.68166   -1445.4199    462.89682     335.5595     751.0229    36500.952 
   84200    296.50013   -1466.4545    475.36266    348.76504   -54.682057    36500.952 
   84300     296.8613   -1451.0849    438.57424    328.97824   -101.21172    36500.952 
   84400     296.2988   -1450.7598    462.77693    350.96419   -168.49139    36500.952 
   84500     309.8219    -1420.926    439.13926     418.2699    103.23461    36500.952 
   84600    301.62635   -1425.1432    472.08224    409.96076   -37.791398    36500.952 
   84700    303.05391    -1423.891    466.21202     411.7938    77.862369    36500.952 
   84800    290.00852   -1451.1408    470.67577    330.05684    90.014178    36500.952 
   84900    288.83356    -1449.132    455.77669      311.857    56.131221    36500.952 
   85000    297.56177   -1459.6672    473.50181    358.48889    124.84207    36500.952 
   85100    307.21837   -1433.3116    465.08822    420.06815   -405.48497    36500.952 
   85200    306.84607   -1415.7323    459.77684    430.65366   -319.07567    36500.952 
   85300    293.94142   -1420.5075    495.89773    403.68443   -291.91991    36500.952 
   85400    297.53719   -1449.9091     438.5649    333.19899   -524.18079    36500.952 
   85500    296.97341   -1448.2787    461.69764    355.41447   -313.79343    36500.952 
   85600    294.70659   -1420.7289    462.10338    373.12643   -232.48816    36500.952 
   85700    300.84654   -1410.3145     464.7885    413.97187   -155.47342    36500.952 
   85800    294.31279   -1492.4424    453.54985    291.07987     282.4704    36500.952 
   85900    299.81493   -1479.0079    470.03663    345.86479    1061.3979    36500.952 
   86000    303.63836   -1488.8602    469.86306    353.11665    661.51553    36500.952 
   86100    297.08823   -1474.7539    459.19013    326.95065    184.94458    36500.952 
   86200    298.95879   -1437.4637    450.51273    364.01628    397.65348    36500.952 
   86300    298.07308   -1450.0699    493.11752     390.0124    219.22644    36500.952 
   86400    299.15623   -1456.7224    458.96252    354.09963   -154.08877    36500.952 
   86500    305.21512   -1452.9893    466.05875    392.30853   -413.38693    36500.952 
   86600    298.05327   -1472.8786    464.70209     338.6988   -444.82293    36500.952 
   86700    299.01854   -1443.4304    456.42635    364.23324   -322.17791    36500.952 
   86800    296.16706    -1400.735    484.04451    421.66121   -177.08146    36500.952 
   86900    302.04549   -1420.7731    478.06315    422.20586   -164.00869    36500.952 
   87000    297.57073   -1443.1394    465.07478    366.63015   -47.938307    36500.952 
   87100    296.98679   -1443.8545    473.15951    371.36103   -161.15419    36500.952 
   87200    301.61667   -1391.7375    487.74424    458.98478   -129.38043    36500.952 
   87300    296.51509   -1415.6487    457.11723     381.3929     -124.846    36500.952 
[...]
  984700    291.69615   -1544.5736    494.02359    267.59801   -768.13781    36500.952 
  984800    305.42876   -1501.4606    494.51666    373.26051   -517.26499    36500.952 
  984900    304.05633   -1513.8789    503.64595    363.76964   -543.77692    36500.952 
  985000    297.73421   -1507.6881    488.42315    326.16861   -156.07534    36500.952 
  985100     294.8928   -1522.7007     511.7399    321.63264   -120.30613    36500.952 
  985200    293.09548   -1482.6078    511.95351     353.8172    202.68789    36500.952 
  985300    300.59167   -1498.0931    501.36488    361.61791    177.69142    36500.952 
  985400    303.20106   -1471.5213    501.53112    400.14753    44.511715    36500.952 
  985500    297.07327   -1481.1041    511.50888    372.85154    10.104949    36500.952 
  985600    302.84654   -1548.9505     502.0732    321.65836    301.35623    36500.952 
  985700    302.17599   -1491.9288    489.66103    363.23773   -419.62565    36500.952 
  985800    301.66293   -1476.2471    497.53798    384.47792   -91.256334    36500.952 
  985900    291.11007   -1499.3274     516.5873     332.7595    -50.91913    36500.952 
  986000    306.68491   -1538.6989    478.26658    325.44855    1149.0331    36500.952 
  986100    295.82714   -1540.7322    495.92391    292.00731    576.82066    36500.952 
  986200    294.72989   -1488.8037    518.60839    361.66191    334.36278    36500.952 
  986300     305.1211   -1478.3292    500.99763    401.48264    532.97338    36500.952 
  986400    303.27098   -1494.8882    492.52174    368.08722      155.419    36500.952 
  986500     306.6636   -1503.0544    484.45488    367.18513    225.46362    36500.952 
  986600    304.56764   -1534.1909    495.43132    337.55361    58.498225    36500.952 
  986700    303.79779   -1502.4345    506.95633    377.35612    176.98215    36500.952 
  986800     301.1066   -1492.8213    495.84707    363.69879    349.12416    36500.952 
  986900    308.39825   -1461.2105    479.98745    412.40028    78.163285    36500.952 
  987000    305.10513   -1427.8716    517.37335    468.24374   -607.55101    36500.952 
  987100    295.71775   -1456.9724    498.11051     377.4594   -147.72664    36500.952 
  987200    287.26007   -1493.7188     496.5671    300.95013   -4.7640092    36500.952 
  987300    286.04797   -1505.9176    514.95728    301.66414   -503.06925    36500.952 
  987400    296.54696   -1486.0681    501.16543    355.16578   -347.27165    36500.952 
  987500    289.86458    -1485.413    504.34662    328.80503    222.11565    36500.952 
  987600    295.73937   -1477.5678     494.6353    353.48653    462.25105    36500.952 
  987700    307.96109   -1454.8944    497.51937    434.27284    301.71199    36500.952 
  987800    297.26155   -1485.1335    469.89689    328.06102    71.647734    36500.952 
  987900    295.55124   -1469.6287     522.2285    388.16866    237.78558    36500.952 
  988000    306.21143   -1452.4676    505.54801     436.8217   -199.02042    36500.952 
  988100    286.84429   -1429.2228    531.15786      398.158    61.902273    36500.952 
  988200    311.22295   -1439.7196    472.27242    438.94076   -350.50662    36500.952 
  988300     305.7702   -1475.6437    510.50488    416.60855   -898.70457    36500.952 
  988400    302.02123   -1465.9182    480.56302      379.451   -33.318706    36500.952 
  988500    309.96587   -1473.0126    491.16779    418.86247    727.29996    36500.952 
  988600    303.35255   -1480.2101    490.05394    380.66611    1099.2892    36500.952 
  988700     295.1955   -1512.8347     492.3225    313.44913    852.36274    36500.952 
  988800    295.13147   -1523.2128    517.95157     328.4107    115.88411    36500.952 
  988900    291.94031   -1508.1829    492.33025    303.39876   -126.71977    36500.952 
  989000    309.13263   -1494.5141    507.35381    409.78157   -310.02964    36500.952 
  989100    303.26815   -1507.6047    459.21662     322.0528    98.109123    36500.952 
  989200    301.62679    -1530.722    499.32471    331.62644 -0.023409699    36500.952 
  989300    308.04054   -1485.9098    487.81627    393.91335    99.688516    36500.952 
  989400    299.40787   -1500.5065    495.89417    348.38431    316.78377    36500.952 
  989500    292.91157   -1524.9308    514.45524    313.16487   -274.97763    36500.952 
  989600    293.74773   -1506.5835    496.61655    317.45201    311.59982    36500.952 
  989700    310.72717   -1498.6386    506.71563    412.22453    276.12027    36500.952 
  989800    301.57299   -1499.7613    498.96203    361.98136   -244.22391    36500.952 
  989900    290.62005   -1530.9298    474.28419    256.63965     13.41208    36500.952 
  990000    297.60948   -1500.8252     519.9183      363.963    404.07869    36500.952 
  990100    303.23392   -1478.3409    522.47958    414.42489    110.42546    36500.952 
  990200    292.00642    -1473.573    491.63554    337.61268   -161.51314    36500.952 
  990300    298.16356   -1503.0676    502.98832    347.29438    8.6715921    36500.952 
  990400    295.37045   -1472.4665    505.71262    367.99806    97.542308    36500.952 
  990500    294.70709   -1491.4468    513.93624    354.24374    459.06048    36500.952 
  990600     311.2943   -1534.7054    500.53264    372.53756    956.29813    36500.952 
  990700    300.30362   -1489.9219    498.38195    365.50448    216.25329    36500.952 
  990800    306.25111   -1437.8647    498.26468    444.32063    251.31426    36500.952 
  990900    300.85531   -1421.2872    499.68721    437.93746    187.54042    36500.952 
  991000    292.73825     -1483.38    503.20961    342.68683   -289.42304    36500.952 
  991100     296.2834   -1488.8508    489.96829    339.99494   -831.66089    36500.952 
  991200    295.13255   -1479.2467    502.77217    357.20229   -882.11237    36500.952 
  991300    308.62085   -1471.7961    489.77231    412.60545    238.88047    36500.952 
  991400    308.34853   -1480.2853    523.22623    436.33953    146.23282    36500.952 
  991500    300.47114   -1493.0302    506.75223    371.52351   -182.13325    36500.952 
  991600    290.77529   -1506.7833    512.08569    319.28924    670.27412    36500.952 
  991700    301.73613   -1515.2243    484.55408    332.84759    656.10486    36500.952 
  991800    303.04256   -1516.5192    515.13069    368.03301    278.90328    36500.952 
  991900    297.84994   -1523.0226    525.19893    348.13284    598.28393    36500.952 
  992000    303.34986   -1503.5743    477.74739    344.98314   -42.032852    36500.952 
  992100    295.24759   -1512.9858    480.77138    301.98229    -379.3803    36500.952 
  992200    301.36214   -1496.7703    472.05442    337.11191   -192.49665    36500.952 
  992300    303.92743   -1456.5756    521.32709    438.17156   -184.80607    36500.952 
  992400    299.25766   -1470.7189    501.62011    383.21904   -620.59804    36500.952 
  992500    300.39984   -1484.6041    477.69916    350.57436   -270.75055    36500.952 
  992600    296.26947   -1443.8229    498.92652    393.91811   -253.09014    36500.952 
  992700    304.57792   -1503.2662    483.34668    356.44013   -109.81356    36500.952 
  992800    304.69197   -1522.2727    495.65136    350.25362   -465.15687    36500.952 
  992900    290.69215   -1490.1581    497.95756    321.41056   -125.38917    36500.952 
  993000    306.46303   -1499.1545    520.07891    405.80261   -25.263852    36500.952 
  993100    295.26436   -1511.8504    513.34068     335.7628    172.44454    36500.952 
  993200    305.29613   -1499.4856    503.63663    383.75617    152.98157    36500.952 
  993300    300.42388   -1484.4983    506.34664    379.43621   -732.62606    36500.952 
  993400     297.9482   -1461.6131    507.56447     392.3519   -389.43922    36500.952 
  993500     300.0631   -1486.1236    489.92826     359.7622   -333.00046    36500.952 
  993600    295.84496   -1472.3367    504.33414     368.8936   -172.38137    36500.952 
  993700    297.47142   -1471.5145    495.67531    368.40682    -24.16845    36500.952 
  993800    299.23955   -1469.5084    490.38409    373.11166    177.57799    36500.952 
  993900    305.85824   -1472.9396    498.63765    407.84328   -337.21582    36500.952 
  994000     303.0673   -1513.1752    495.32371    351.68182    56.985662    36500.952 
  994100     298.9591   -1504.3916    504.70175    351.27884    124.58669    36500.952 
  994200    285.67226    -1482.797    490.42054    298.55018    759.59412    36500.952 
  994300    288.22017   -1525.2476    485.75245    262.94524    858.18069    36500.952 
  994400    298.90727   -1477.9068    505.31172    378.13939    355.49059    36500.952 
  994500    301.92849   -1457.2986    518.77642    425.86487    126.87548    36500.952 
  994600    300.46662   -1480.2186    493.37166    370.93409   -122.07742    36500.952 
  994700    290.15196   -1486.7311    503.64836    328.08734   -150.65181    36500.952 
  994800    301.65535   -1471.6198    491.63315    383.16616   -435.02484    36500.952 
  994900    293.14469   -1462.9307    506.23037     367.9936    -103.5415    36500.952 
  995000    299.99646   -1427.3684    483.88981    412.17782    568.79307    36500.952 
  995100    302.25443   -1465.6164    519.51689    419.76048    331.93841    36500.952 
  995200    297.37528   -1456.3308    483.90379    371.38454   -653.22989    36500.952 
  995300    296.64223   -1490.7224    525.07086    374.84745   -256.92449    36500.952 
  995400    304.72116   -1485.7596    491.49589    382.74315    -438.1691    36500.952 
  995500    307.92965   -1495.7461    477.76566    373.52529   -502.52635    36500.952 
  995600    316.90507   -1489.6713    496.59282     438.9864    368.27898    36500.952 
  995700    306.44962   -1489.8267    484.02071    379.01162    730.94714    36500.952 
  995800    289.57626   -1519.9172    505.33468    293.98593    81.396796    36500.952 
  995900     306.1142   -1533.9496    512.75005    362.10244    263.63113    36500.952 
  996000    296.97277    -1541.937    451.30379    251.35936   -111.48876    36500.952 
  996100    304.59306   -1539.4368    503.39888    340.39011   -233.17593    36500.952 
  996200    305.09489    -1519.937    470.85977    329.61849    32.791253    36500.952 
  996300    307.15568   -1504.9364    494.52321    377.59511    123.13188    36500.952 
  996400    287.18809   -1498.8665    477.32806     276.2381   -490.29448    36500.952 
  996500    300.00076   -1521.5041    490.84303    325.01482    61.358164    36500.952 
  996600    292.45796   -1543.3185    483.99512    262.26724   -11.572272    36500.952 
  996700    295.02406   -1524.2725    492.86086    301.77499   -607.89917    36500.952 
  996800    300.67297   -1506.9749    472.36029    324.09888   -70.907176    36500.952 
  996900    295.76582   -1491.8542    479.34462    324.02902    29.755513    36500.952 
  997000     303.8789   -1477.8257    502.98264    398.35773      171.664    36500.952 
  997100    292.02708    -1461.565    466.93021     325.0087   -426.84576    36500.952 
  997200    308.14029   -1457.7849     491.7797    426.45246   -435.14265    36500.952 
  997300    306.51023   -1473.0696    478.66086    390.68277   -643.97898    36500.952 
  997400    295.18105   -1451.6166    484.05182    366.33126   -483.70635    36500.952 
  997500    295.98601   -1454.5715    512.25303    395.21503   -54.681956    36500.952 
  997600    307.44612   -1467.1119    491.67347    413.88234   -350.98074    36500.952 
  997700    295.83079   -1455.2639    479.56214    361.13038    -263.9545    36500.952 
  997800    304.37014   -1491.9292    484.42769    367.91913   -431.52817    36500.952 
  997900    291.91694   -1525.1463    462.83939    256.83891   -153.67945    36500.952 
  998000    298.03138   -1503.1352    493.50812    337.14937   -556.50167    36500.952 
  998100    307.63333   -1485.5906    470.54604    375.12217   -246.20415    36500.952 
  998200    303.57381    -1468.801    488.56177    391.58293   -634.12313    36500.952 
  998300    303.90158   -1460.5382    485.53035    398.29545   -531.38244    36500.952 
  998400    296.27439    -1450.406     489.9127    378.34346   -123.08423    36500.952 
  998500    304.41828   -1472.4372     497.8423    401.04332   -284.22304    36500.952 
  998600     300.2609   -1488.8765    510.81088    378.78575   -48.632423    36500.952 
  998700    300.63921   -1474.3822    478.95071    363.12947    750.03401    36500.952 
  998800    299.60534   -1483.1941    504.63177    375.32666    456.93414    36500.952 
  998900    303.58792   -1510.5856    492.93187    354.23212    716.55812    36500.952 
  999000    309.80716   -1494.8881    478.65423    383.75623     374.9309    36500.952 
  999100    296.88649   -1510.1284    477.63473    309.10907   -26.466473    36500.952 
  999200    300.91107   -1520.0977    495.25728    334.94905   -186.65843    36500.952 
  999300    304.96087   -1523.4109    491.56908    346.24825   -4.8553437    36500.952 
  999400    292.06317   -1521.2093    464.70548    263.30283   -151.34374    36500.952 
  999500    302.29644    -1501.442     487.7159    352.32367   -224.43312    36500.952 
  999600    307.14218   -1472.9007    485.55514    400.60171   -95.544495    36500.952 
  999700     297.4853   -1512.9282    504.03916    335.41967    386.22913    36500.952 
  999800    300.57937   -1460.8348    483.36429    380.82001    238.79437    36500.952 
  999900    309.52054   -1473.8558    491.58487    416.42394    241.71715    36500.952 
 1000000    303.15303   -1450.2658    508.70402    428.35884    601.64173    36500.952 
 1000100    300.52463    -1450.585    496.62637    404.08451    628.22523    36500.952 
 1000200    303.00637   -1453.1757    460.17837    376.26056    434.75265    36500.952 
 1000300    298.09361    -1436.603    484.42114    394.87572   -228.05465    36500.952 
 1000400    306.29694   -1496.0165     478.9919    367.10312   -169.84037    36500.952 
 1000500    291.97082   -1478.8054    490.84754    331.43143   -403.26575    36500.952 
 1000600    302.33103   -1524.8263    474.74359    316.12343   -344.19555    36500.952 
 1000700    312.97088   -1461.7212    475.16997    427.73544    332.25614    36500.952 
 1000800     306.4743   -1441.5517    508.00829    451.38578    389.28149    36500.952 
 1000900    290.11551   -1426.2743    511.66732    396.39838   -16.870569    36500.952 
 1001000    297.24291   -1440.3801    477.58145    380.41474   -280.84151    36500.952 
 1001100    302.60919   -1448.5032    490.00392    408.96384    -441.0727    36500.952 
 1001200    295.01284    -1435.674    484.08886    381.55074   -50.589761    36500.952 
 1001300    289.84293   -1417.9282    475.81096     367.6563    128.20663    36500.952 
 1001400    298.90238   -1483.4282    487.50113    354.78523    89.355159    36500.952 
 1001500    296.03973    -1497.697     491.0865    331.16582     376.4725    36500.952 
 1001600     303.3517   -1452.9815    494.04526    411.88214    127.03017    36500.952 
 1001700    303.62898   -1433.5797    496.57121    435.06293    27.289777    36500.952 
 1001800    296.99258   -1474.2063     461.3001    329.17591   -648.24722    36500.952 
 1001900    305.35996   -1416.8839    506.26368    469.27338   -481.62582    36500.952 
 1002000    305.46806   -1406.0857    503.49109    477.78749   -337.71828    36500.952 
 1002100    303.36847   -1375.4317    513.56067    509.02318   -357.69269    36500.952 
 1002200    300.25682   -1420.1335    484.06725    420.76668   -519.92982    36500.952 
 1002300    307.79435   -1445.9096    458.77619    403.76093   -285.73566    36500.952 
 1002400     298.9553   -1435.3261       483.91    399.53538    488.15099    36500.952 
 1002500    297.61257   -1432.5781    495.34019    407.64595    440.39696    36500.952 
 1002600    308.94494   -1433.5229    482.44147    445.01235   -138.07675    36500.952 
 1002700    289.89032   -1433.6687    502.79727    379.11621   -67.242423    36500.952 
 1002800    306.00689   -1439.2438    483.38725    426.96041    164.55374    36500.952 
 1002900    293.07011   -1516.1502     470.4471     278.6538   -542.36886    36500.952 
 1003000    297.78648   -1543.1851    441.85989    244.34448    20.080733    36500.952 
 1003100    310.08308    -1514.332    469.62079    356.52569   -406.03321    36500.952 
 1003200    307.57175   -1585.8351     491.9396    295.99293    287.18837    36500.952 
 1003300    295.81218   -1534.5192    469.70352    271.93239   -33.544904    36500.952 
 1003400     296.9635   -1561.6848    440.46908      220.735   -352.28903    36500.952 
 1003500        298.7   -1566.7117    497.27988    280.36596   -374.41875    36500.952 
 1003600    305.97533   -1522.1391    459.99041    320.52574    95.775171    36500.952 
 1003700    297.67428   -1576.0339    443.34443    212.47324    95.964125    36500.952 
 1003800    309.05897   -1553.2313    468.26242     311.6402    230.12578    36500.952 
 1003900    296.80632   -1516.0697    477.59544     302.7662    323.77111    36500.952 
 1004000    302.40383    -1529.878    487.31999    323.97711    307.11298    36500.952 
 1004100    296.54506   -1497.3594    499.21811    341.91857    310.58693    36500.952 
 1004200    309.59013   -1499.5074    483.48928    382.99126   -44.232895    36500.952 
 1004300     298.0664   -1528.2969    464.71156    283.34935   -515.62742    36500.952 
 1004400    312.88037   -1500.1451    488.68949    402.42198   -243.74212    36500.952 
 1004500     305.9577   -1486.9219    481.46645    377.13932   -564.06582    36500.952 
 1004600    293.52931   -1538.3071    452.29471     240.4196   -446.37837    36500.952 
 1004700    295.93999   -1488.3678    469.01057    317.96838     60.72699    36500.952 
 1004800    313.24762    -1495.629    468.63193    388.54008    199.89527    36500.952 
 1004900    303.35787   -1460.0483    513.47408    424.27216    380.69692    36500.952 
 1005000    300.54886   -1511.8544    468.44996    314.74818   -51.108902    36500.952 
 1005100    290.79056   -1491.5342    460.45719    282.97884    376.29836    36500.952 
 1005200    298.30211   -1473.6818    473.80139    348.11937    484.02924    36500.952 
 1005300    309.91413   -1483.1615    476.11873     393.4307    762.51023    36500.952 
 1005329    292.18449   -1513.0799    456.04328    263.31823   -851.11913    36500.952 
Loop time of 597.878 on 32 procs for 1000000 steps with 1517 atoms

Performance: 144.511 ns/day, 0.166 hours/ns, 1672.582 timesteps/s
100.0% CPU use with 32 MPI tasks x no OpenMP threads

MPI task timing breakdown:
Section |  min time  |  avg time  |  max time  |%varavg| %total
---------------------------------------------------------------
Pair    | 251.46     | 280.42     | 307.87     |  92.7 | 46.90
Bond    | 1.4713     | 1.5904     | 1.7312     |   5.3 |  0.27
Neigh   | 38.801     | 38.903     | 39.001     |   1.2 |  6.51
Comm    | 236.37     | 263.72     | 292.55     |  94.9 | 44.11
Output  | 0.38991    | 0.40631    | 0.81924    |  11.6 |  0.07
Modify  | 9.4421     | 9.7376     | 10.006     |   6.9 |  1.63
Other   |            | 3.104      |            |       |  0.52

Nlocal:        47.4062 ave          87 max          14 min
Histogram: 3 1 3 5 5 7 3 4 0 1
Nghost:        2048.28 ave        2102 max        1999 min
Histogram: 2 3 1 8 3 5 2 5 1 2
Neighs:        5451.34 ave       10133 max        1544 min
Histogram: 3 3 2 5 8 4 2 0 1 4

Total # of neighbors = 174443
Ave neighs/atom = 114.99209
Ave special neighs/atom = 2.0342782
Neighbor list builds = 49807
Dangerous builds = 0

# Output the system volume
variable v equal vol
print 'The system volume is $v'
The system volume is 36500.9524534564

# Outputs
variable A equal xhi-xlo
variable B equal yhi-ylo
variable C equal zhi-zlo
variable D equal xy
variable E equal xz
variable F equal yz
print 'Lattice vectors'
Lattice vectors
print '$A 0 0'
33.1717257137913 0 0
print '$D $B 0'
0 33.1717257137913 0
print '$E $F $C'
0 0 33.1717257137913
Total wall time: 0:10:02
