LAMMPS data file
 1524 atoms
 1023 bonds
 542 angles
 52 dihedrals
 2 impropers
 7 atom types
 8 bond types
 4 angle types
 3 dihedral types
 1 improper types
 0 15 xlo xhi
 0 15 ylo yhi
 0 15 zlo zhi
 0 0 0 xy xz yz

# Atom types
#
# 1 C_3
# 2 N_2
# 3 C_2
# 4 O_2
# 5 H_
# 6 H__HB
# 7 O_3

# Bond Coeffs
#
# 1 C_3*C_3
# 2 C_3*H_
# 3 N_2*C_2
# 4 C_3*N_2
# 5 N_2*H__HB
# 6 C_3*C_2
# 7 C_2*O_2
# 8 O_3*H__HB

# Angle Coeffs
#
# 1 C_3
# 2 N_2
# 3 C_2
# 4 O_3

# Dihedral Coeffs
#
# 1 A1
# 2 C1
# 3 B1

# Inversion Coeffs
#
# 1 1

 Masses

 1 12.01
 2 14.01
 3 12.01
 4 16
 5 1.01
 6 1.01
 7 16

 Atoms # full

1 1 1 0 7.33726113057955 3.51875151834333 10.3792857016274
2 1 1 0 7.79032535314968 2.15779542068276 9.80513848142384
3 1 1 0 6.81859517047408 1.60800362711091 8.7257674350277
4 1 2 0 7.37968716128717 -0.789360271061031 9.07562251586443
5 1 1 0 6.59742095018773 -2.5187761184848 10.6313189970752
6 1 1 0 5.97825078147249 -2.14476527260654 12.0062351506419
7 1 3 0 6.34428159180527 -1.48465866913553 9.60444011610188
8 1 4 0 5.16234216612343 -1.27219499368154 9.24159390814118
9 1 1 0 7.27274620623171 0.258666187092566 8.10961979063958
10 1 5 0 7.28409692787009 4.26825222134096 9.5870916195008
11 1 5 0 8.05185028397028 3.85816725381357 11.1314907271168
12 1 5 0 6.35574308062933 3.42660837375618 10.8483974777826
13 1 5 0 7.86364681087443 1.44351694931218 10.6295513386584
14 1 5 0 8.78602978234265 2.27767328025145 9.36961870176886
15 1 5 0 6.73652976018802 2.33949448188005 7.91704684185372
16 1 5 0 5.82426154554855 1.48412485567004 9.16299706843416
17 1 6 0 8.26958658119163 -0.999628075327212 9.40079601254394
18 1 5 0 6.17905345250403 -3.4631959895318 10.2740424038685
19 1 5 0 7.67494362283958 -2.66189475986091 10.7581381770595
20 1 5 0 4.89367540554664 -2.03945354073912 11.9102699326388
21 1 5 0 6.36809493026288 -1.16652339927633 12.3047691636409
22 1 5 0 8.25388489325581 0.388517653614084 7.64770027008775
23 1 5 0 6.57811514225685 -0.0323719625991679 7.31668954125747
24 1 5 0 6.2651795719594 -3.16047980451513 13.0572504544598
25 2 6 0 9.02239557282999 15.0382103425823 2.61060406104662
26 2 7 0 9.98239557282999 15.0382103425823 2.61060406104662
27 2 6 0 10.22239557283 14.1082103425823 2.61060406104662
28 3 6 0 4.76533179564402 4.27396924275905 6.15228710579686
29 3 7 0 5.72533179564402 4.27396924275905 6.15228710579686
30 3 6 0 5.96533179564402 3.34396924275905 6.15228710579686
31 4 6 0 9.00247009165585 1.47824152879417 6.58406792907044
32 4 7 0 9.96247009165585 1.47824152879417 6.58406792907044
33 4 6 0 10.2024700916559 0.548241528794169 6.58406792907044
34 5 6 0 12.2815041434672 7.30256097548641 3.68871008860879
35 5 7 0 13.2415041434672 7.30256097548641 3.68871008860879
36 5 6 0 13.4815041434672 6.37256097548641 3.68871008860879
37 6 6 0 5.19403636615723 5.71282021858729 6.92245420999825
38 6 7 0 6.15403636615723 5.71282021858729 6.92245420999825
39 6 6 0 6.39403636615723 4.78282021858729 6.92245420999825
40 7 6 0 3.60889686897397 15.2684268778563 1.7947609804105
41 7 7 0 4.56889686897397 15.2684268778563 1.7947609804105
42 7 6 0 4.80889686897397 14.3384268778563 1.7947609804105
43 8 6 0 6.28744024361484 6.18997166905552 12.6180754113011
44 8 7 0 7.24744024361484 6.18997166905552 12.6180754113011
45 8 6 0 7.48744024361484 5.25997166905552 12.6180754113011
46 9 6 0 6.54214944734238 9.46519140660763 13.3916718175169
47 9 7 0 7.50214944734238 9.46519140660763 13.3916718175169
48 9 6 0 7.74214944734238 8.53519140660763 13.3916718175169
49 10 6 0 13.2653090490215 13.6781690308731 5.60734782367945
50 10 7 0 14.2253090490215 13.6781690308731 5.60734782367945
51 10 6 0 14.4653090490215 12.7481690308731 5.60734782367945
52 11 6 0 4.86697447297163 10.0289095953945 7.02052463893779
53 11 7 0 5.82697447297163 10.0289095953945 7.02052463893779
54 11 6 0 6.06697447297163 9.09890959539451 7.02052463893779
55 12 6 0 9.31712926874869 11.8647146217432 2.88702468154952
56 12 7 0 10.2771292687487 11.8647146217432 2.88702468154952
57 12 6 0 10.5171292687487 10.9347146217432 2.88702468154952
58 13 6 0 0.852538538603112 4.5244745553378 0.325131062418222
59 13 7 0 1.81253853860311 4.5244745553378 0.325131062418222
60 13 6 0 2.05253853860311 3.5944745553378 0.325131062418222
61 14 6 0 1.32121496295556 15.169354350483 0.656910905381665
62 14 7 0 2.28121496295556 15.169354350483 0.656910905381665
63 14 6 0 2.52121496295556 14.239354350483 0.656910905381665
64 15 6 0 4.06726926958188 8.87270788121037 3.65397741668858
65 15 7 0 5.02726926958188 8.87270788121037 3.65397741668858
66 15 6 0 5.26726926958188 7.94270788121037 3.65397741668858
67 16 6 0 10.4986882446986 2.50838570221327 5.59894612175412
68 16 7 0 11.4586882446986 2.50838570221327 5.59894612175412
69 16 6 0 11.6986882446986 1.57838570221327 5.59894612175412
70 17 6 0 2.4588622692693 9.4705962777976 11.881422617007
71 17 7 0 3.4188622692693 9.4705962777976 11.881422617007
72 17 6 0 3.6588622692693 8.5405962777976 11.881422617007
73 18 6 0 10.760923112249 11.1582936094515 5.97027908661403
74 18 7 0 11.720923112249 11.1582936094515 5.97027908661403
75 18 6 0 11.960923112249 10.2282936094515 5.97027908661403
76 19 6 0 11.3032172543183 8.7185943014361 10.3603420488071
77 19 7 0 12.2632172543183 8.7185943014361 10.3603420488071
78 19 6 0 12.5032172543183 7.7885943014361 10.3603420488071
79 20 6 0 5.36941071317531 5.81600375165231 0.856216078391299
80 20 7 0 6.32941071317531 5.81600375165231 0.856216078391299
81 20 6 0 6.56941071317531 4.88600375165232 0.856216078391299
82 21 6 0 4.14647279234603 3.52568017359823 0.174948172643781
83 21 7 0 5.10647279234603 3.52568017359823 0.174948172643781
84 21 6 0 5.34647279234603 2.59568017359823 0.174948172643781
85 22 6 0 3.74986390161328 8.38914083474316 3.56118257506751
86 22 7 0 4.70986390161328 8.38914083474316 3.56118257506751
87 22 6 0 4.94986390161328 7.45914083474316 3.56118257506751
88 23 6 0 5.43947404643521 14.1509988977946 4.58912021946162
89 23 7 0 6.39947404643521 14.1509988977946 4.58912021946162
90 23 6 0 6.63947404643521 13.2209988977946 4.58912021946162
91 24 6 0 11.5931567635573 0.717351406756789 3.33154162508436
92 24 7 0 12.5531567635573 0.717351406756789 3.33154162508436
93 24 6 0 12.7931567635573 -0.212648593243212 3.33154162508436
94 25 6 0 8.37313424024731 0.342652234658599 9.24854765413329
95 25 7 0 9.33313424024731 0.342652234658599 9.24854765413329
96 25 6 0 9.57313424024731 -0.587347765341401 9.24854765413329
97 26 6 0 -0.083387277116999 12.7319794035889 9.70161122619174
98 26 7 0 0.876612722883001 12.7319794035889 9.70161122619174
99 26 6 0 1.116612722883 11.8019794035889 9.70161122619174
100 27 6 0 5.69429479583167 3.37371877668425 2.23149368888699
101 27 7 0 6.65429479583167 3.37371877668425 2.23149368888699
102 27 6 0 6.89429479583167 2.44371877668425 2.23149368888699
103 28 6 0 7.99085838298313 5.27039866702631 0.729600082850084
104 28 7 0 8.95085838298313 5.27039866702631 0.729600082850084
105 28 6 0 9.19085838298313 4.34039866702631 0.729600082850084
106 29 6 0 11.7771131107304 4.05344637850299 11.5236657299101
107 29 7 0 12.7371131107304 4.05344637850299 11.5236657299101
108 29 6 0 12.9771131107304 3.12344637850299 11.5236657299101
109 30 6 0 4.21040029658005 10.1166181130707 14.0512009186205
110 30 7 0 5.17040029658005 10.1166181130707 14.0512009186205
111 30 6 0 5.41040029658005 9.18661811307073 14.0512009186205
112 31 6 0 6.65216082634404 1.70209878747351 14.1187723609619
113 31 7 0 7.61216082634404 1.70209878747351 14.1187723609619
114 31 6 0 7.85216082634404 0.772098787473515 14.1187723609619
115 32 6 0 9.75488173702732 5.95120331546292 5.42508928338066
116 32 7 0 10.7148817370273 5.95120331546292 5.42508928338066
117 32 6 0 10.9548817370273 5.02120331546292 5.42508928338066
118 33 6 0 4.06384475922212 0.939001654451713 9.45980908465572
119 33 7 0 5.02384475922212 0.939001654451713 9.45980908465572
120 33 6 0 5.26384475922212 0.00900165445171291 9.45980908465572
121 34 6 0 2.52898916180246 1.16906236665323 4.57220927579328
122 34 7 0 3.48898916180246 1.16906236665323 4.57220927579328
123 34 6 0 3.72898916180246 0.239062366653234 4.57220927579328
124 35 6 0 13.9838894332945 14.8641014045011 10.2877041930333
125 35 7 0 14.9438894332945 14.8641014045011 10.2877041930333
126 35 6 0 15.1838894332945 13.9341014045011 10.2877041930333
127 36 6 0 0.657171466592699 8.27659644809552 10.1173158665188
128 36 7 0 1.6171714665927 8.27659644809552 10.1173158665188
129 36 6 0 1.8571714665927 7.34659644809552 10.1173158665188
130 37 6 0 0.48004155440256 3.94833401235752 14.4522295275237
131 37 7 0 1.44004155440256 3.94833401235752 14.4522295275237
132 37 6 0 1.68004155440256 3.01833401235752 14.4522295275237
133 38 6 0 1.6399668033421 1.27580460784025 14.1291879967321
134 38 7 0 2.5999668033421 1.27580460784025 14.1291879967321
135 38 6 0 2.8399668033421 0.345804607840255 14.1291879967321
136 39 6 0 5.65120723491535 15.3079514838196 5.43518311693333
137 39 7 0 6.61120723491535 15.3079514838196 5.43518311693333
138 39 6 0 6.85120723491535 14.3779514838196 5.43518311693333
139 40 6 0 11.9118147091661 2.32998732518405 12.6119713357184
140 40 7 0 12.8718147091661 2.32998732518405 12.6119713357184
141 40 6 0 13.1118147091661 1.39998732518405 12.6119713357184
142 41 6 0 1.41252297020517 0.810660401303321 13.1895255006384
143 41 7 0 2.37252297020517 0.810660401303321 13.1895255006384
144 41 6 0 2.61252297020517 -0.119339598696679 13.1895255006384
145 42 6 0 6.34266897730529 8.19517751498148 7.74457676103339
146 42 7 0 7.30266897730529 8.19517751498148 7.74457676103339
147 42 6 0 7.54266897730529 7.26517751498148 7.74457676103339
148 43 6 0 12.1792492868565 0.898619806803763 0.603636733721942
149 43 7 0 13.1392492868565 0.898619806803763 0.603636733721942
150 43 6 0 13.3792492868565 -0.0313801931962371 0.603636733721942
151 44 6 0 9.67330486790277 7.07653912523761 4.256323389709
152 44 7 0 10.6333048679028 7.07653912523761 4.256323389709
153 44 6 0 10.8733048679028 6.14653912523761 4.256323389709
154 45 6 0 13.6674195346143 9.42829628050327 10.4405082855374
155 45 7 0 14.6274195346143 9.42829628050327 10.4405082855374
156 45 6 0 14.8674195346143 8.49829628050327 10.4405082855374
157 46 6 0 0.318067205809057 5.12879810220562 2.47506058076397
158 46 7 0 1.27806720580906 5.12879810220562 2.47506058076397
159 46 6 0 1.51806720580906 4.19879810220562 2.47506058076397
160 47 6 0 9.45284604837187 5.00331155763939 12.0139369159006
161 47 7 0 10.4128460483719 5.00331155763939 12.0139369159006
162 47 6 0 10.6528460483719 4.07331155763939 12.0139369159006
163 48 6 0 13.291290979106 5.83602395531721 10.8152992185205
164 48 7 0 14.251290979106 5.83602395531721 10.8152992185205
165 48 6 0 14.491290979106 4.90602395531721 10.8152992185205
166 49 6 0 1.87487978182733 7.5636243009381 9.10777684533969
167 49 7 0 2.83487978182733 7.5636243009381 9.10777684533969
168 49 6 0 3.07487978182733 6.6336243009381 9.10777684533969
169 50 6 0 9.27423519708216 5.60048733529635 0.0646185432560742
170 50 7 0 10.2342351970822 5.60048733529635 0.0646185432560742
171 50 6 0 10.4742351970822 4.67048733529635 0.0646185432560742
172 51 6 0 3.16265517773107 4.73212293855846 14.8100084275939
173 51 7 0 4.12265517773107 4.73212293855846 14.8100084275939
174 51 6 0 4.36265517773107 3.80212293855846 14.8100084275939
175 52 6 0 6.2599624197185 6.16413901717402 14.3412771052681
176 52 7 0 7.2199624197185 6.16413901717402 14.3412771052681
177 52 6 0 7.4599624197185 5.23413901717402 14.3412771052681
178 53 6 0 0.253683341871947 2.46106521733105 10.3810436523054
179 53 7 0 1.21368334187195 2.46106521733105 10.3810436523054
180 53 6 0 1.45368334187195 1.53106521733105 10.3810436523054
181 54 6 0 11.2692889726907 10.928133128155 12.8289912524633
182 54 7 0 12.2292889726907 10.928133128155 12.8289912524633
183 54 6 0 12.4692889726907 9.99813312815502 12.8289912524633
184 55 6 0 -0.342081335401162 12.9511173888482 4.41988854669034
185 55 7 0 0.617918664598837 12.9511173888482 4.41988854669034
186 55 6 0 0.857918664598837 12.0211173888482 4.41988854669034
187 56 6 0 0.603510697111487 13.2015178438183 4.32499050744809
188 56 7 0 1.56351069711149 13.2015178438183 4.32499050744809
189 56 6 0 1.80351069711149 12.2715178438183 4.32499050744809
190 57 6 0 10.3838988037035 3.80805203615688 8.55388190830126
191 57 7 0 11.3438988037035 3.80805203615688 8.55388190830126
192 57 6 0 11.5838988037035 2.87805203615688 8.55388190830126
193 58 6 0 11.700025683241 13.4441094139498 11.7005494027399
194 58 7 0 12.660025683241 13.4441094139498 11.7005494027399
195 58 6 0 12.900025683241 12.5141094139498 11.7005494027399
196 59 6 0 11.8770431941096 6.75978489144705 0.604324409505352
197 59 7 0 12.8370431941096 6.75978489144705 0.604324409505352
198 59 6 0 13.0770431941096 5.82978489144705 0.604324409505352
199 60 6 0 13.5851499535795 15.2247188744973 13.2700440532062
200 60 7 0 14.5451499535795 15.2247188744973 13.2700440532062
201 60 6 0 14.7851499535795 14.2947188744973 13.2700440532062
202 61 6 0 5.23853817416355 12.3421725599933 11.8283982400317
203 61 7 0 6.19853817416355 12.3421725599933 11.8283982400317
204 61 6 0 6.43853817416355 11.4121725599933 11.8283982400317
205 62 6 0 10.0593284766376 11.1717332123686 8.47095244098455
206 62 7 0 11.0193284766376 11.1717332123686 8.47095244098455
207 62 6 0 11.2593284766376 10.2417332123686 8.47095244098455
208 63 6 0 11.6351621544175 13.5523809997272 11.8017512443475
209 63 7 0 12.5951621544175 13.5523809997272 11.8017512443475
210 63 6 0 12.8351621544175 12.6223809997272 11.8017512443475
211 64 6 0 13.1027018353064 7.17906100483611 14.4773235346656
212 64 7 0 14.0627018353064 7.17906100483611 14.4773235346656
213 64 6 0 14.3027018353064 6.24906100483611 14.4773235346656
214 65 6 0 4.35749608950689 11.7938402764872 10.1827322307508
215 65 7 0 5.31749608950689 11.7938402764872 10.1827322307508
216 65 6 0 5.55749608950689 10.8638402764872 10.1827322307508
217 66 6 0 3.78794283882715 14.4361713462882 6.59381356788799
218 66 7 0 4.74794283882715 14.4361713462882 6.59381356788799
219 66 6 0 4.98794283882715 13.5061713462882 6.59381356788799
220 67 6 0 0.143435041392222 3.19297265651636 6.24258031952195
221 67 7 0 1.10343504139222 3.19297265651636 6.24258031952195
222 67 6 0 1.34343504139222 2.26297265651636 6.24258031952195
223 68 6 0 10.9360342046432 1.88254362013191 10.6706747110002
224 68 7 0 11.8960342046432 1.88254362013191 10.6706747110002
225 68 6 0 12.1360342046432 0.95254362013191 10.6706747110002
226 69 6 0 8.05412588568404 2.0090664228797 8.60382432234474
227 69 7 0 9.01412588568404 2.0090664228797 8.60382432234474
228 69 6 0 9.25412588568404 1.0790664228797 8.60382432234474
229 70 6 0 -0.500136257177219 8.53170141735114 10.2255415159743
230 70 7 0 0.459863742822781 8.53170141735114 10.2255415159743
231 70 6 0 0.699863742822781 7.60170141735114 10.2255415159743
232 71 6 0 12.8474041137099 12.7097669969685 6.15082419477403
233 71 7 0 13.8074041137099 12.7097669969685 6.15082419477403
234 71 6 0 14.0474041137099 11.7797669969685 6.15082419477403
235 72 6 0 9.1491107542254 6.44258418161422 2.36459022969939
236 72 7 0 10.1091107542254 6.44258418161422 2.36459022969939
237 72 6 0 10.3491107542254 5.51258418161422 2.36459022969939
238 73 6 0 1.28199591577984 3.78295344341546 12.4342567229178
239 73 7 0 2.24199591577984 3.78295344341546 12.4342567229178
240 73 6 0 2.48199591577984 2.85295344341546 12.4342567229178
241 74 6 0 10.9714772079326 3.28399807488546 8.26470100670122
242 74 7 0 11.9314772079326 3.28399807488546 8.26470100670122
243 74 6 0 12.1714772079326 2.35399807488546 8.26470100670122
244 75 6 0 1.46537441105582 6.73650724970736 3.01471205893904
245 75 7 0 2.42537441105582 6.73650724970736 3.01471205893904
246 75 6 0 2.66537441105582 5.80650724970736 3.01471205893904
247 76 6 0 6.79924308948219 15.0499059543386 7.63252785312943
248 76 7 0 7.75924308948219 15.0499059543386 7.63252785312943
249 76 6 0 7.99924308948219 14.1199059543386 7.63252785312943
250 77 6 0 4.4038019973971 12.6684319557995 13.8512830354739
251 77 7 0 5.3638019973971 12.6684319557995 13.8512830354739
252 77 6 0 5.6038019973971 11.7384319557995 13.8512830354739
253 78 6 0 8.04731653930619 3.20556489791721 8.35900868754834
254 78 7 0 9.00731653930619 3.20556489791721 8.35900868754834
255 78 6 0 9.24731653930619 2.27556489791721 8.35900868754834
256 79 6 0 10.7222350970563 4.05613733263686 14.0128521085717
257 79 7 0 11.6822350970563 4.05613733263686 14.0128521085717
258 79 6 0 11.9222350970563 3.12613733263686 14.0128521085717
259 80 6 0 6.20487115273252 2.30192130821757 3.7115844769869
260 80 7 0 7.16487115273252 2.30192130821757 3.7115844769869
261 80 6 0 7.40487115273252 1.37192130821757 3.7115844769869
262 81 6 0 2.39506126541644 1.59956325235777 9.6904249722138
263 81 7 0 3.35506126541644 1.59956325235777 9.6904249722138
264 81 6 0 3.59506126541644 0.669563252357766 9.6904249722138
265 82 6 0 1.64584726371802 4.26087720244192 5.39240374113433
266 82 7 0 2.60584726371802 4.26087720244192 5.39240374113433
267 82 6 0 2.84584726371802 3.33087720244192 5.39240374113433
268 83 6 0 8.25170607000589 13.7873936041165 4.16603663354181
269 83 7 0 9.21170607000589 13.7873936041165 4.16603663354181
270 83 6 0 9.45170607000589 12.8573936041165 4.16603663354181
271 84 6 0 11.3298260878958 13.4299120101519 6.81823971681297
272 84 7 0 12.2898260878958 13.4299120101519 6.81823971681297
273 84 6 0 12.5298260878958 12.4999120101519 6.81823971681297
274 85 6 0 2.43698803402483 7.22659035976045 14.6086900751106
275 85 7 0 3.39698803402483 7.22659035976045 14.6086900751106
276 85 6 0 3.63698803402484 6.29659035976045 14.6086900751106
277 86 6 0 10.9716251345538 8.1066031152755 14.2798074684106
278 86 7 0 11.9316251345538 8.1066031152755 14.2798074684106
279 86 6 0 12.1716251345538 7.1766031152755 14.2798074684106
280 87 6 0 1.44764393728226 13.6545211988874 4.32730425847694
281 87 7 0 2.40764393728226 13.6545211988874 4.32730425847694
282 87 6 0 2.64764393728226 12.7245211988874 4.32730425847694
283 88 6 0 10.7587771913689 11.4363866047375 3.80250027053989
284 88 7 0 11.7187771913689 11.4363866047375 3.80250027053989
285 88 6 0 11.9587771913689 10.5063866047375 3.80250027053989
286 89 6 0 5.1626443576254 7.11308477487415 5.31619786284864
287 89 7 0 6.1226443576254 7.11308477487415 5.31619786284864
288 89 6 0 6.3626443576254 6.18308477487415 5.31619786284864
289 90 6 0 14.1661476487946 7.09153423476033 9.56437092041597
290 90 7 0 15.1261476487946 7.09153423476033 9.56437092041597
291 90 6 0 15.3661476487946 6.16153423476033 9.56437092041597
292 91 6 0 11.4380064820591 7.50788347138092 7.90780363488011
293 91 7 0 12.3980064820591 7.50788347138092 7.90780363488011
294 91 6 0 12.6380064820591 6.57788347138092 7.90780363488011
295 92 6 0 2.73356487552635 13.3853076914698 6.22371679055505
296 92 7 0 3.69356487552635 13.3853076914698 6.22371679055505
297 92 6 0 3.93356487552635 12.4553076914698 6.22371679055505
298 93 6 0 -0.716132219675928 12.9816725621372 11.9218122318853
299 93 7 0 0.243867780324072 12.9816725621372 11.9218122318853
300 93 6 0 0.483867780324072 12.0516725621372 11.9218122318853
301 94 6 0 11.5521658763476 11.900969520621 11.5248579822946
302 94 7 0 12.5121658763476 11.900969520621 11.5248579822946
303 94 6 0 12.7521658763476 10.970969520621 11.5248579822946
304 95 6 0 0.286772923283279 1.67664480902255 10.5793621670455
305 95 7 0 1.24677292328328 1.67664480902255 10.5793621670455
306 95 6 0 1.48677292328328 0.746644809022546 10.5793621670455
307 96 6 0 13.2654266541079 2.45934919727966 6.19767041411251
308 96 7 0 14.2254266541079 2.45934919727966 6.19767041411251
309 96 6 0 14.4654266541079 1.52934919727966 6.19767041411251
310 97 6 0 13.131203257218 7.39139820024371 5.38167379098013
311 97 7 0 14.091203257218 7.39139820024371 5.38167379098013
312 97 6 0 14.331203257218 6.46139820024371 5.38167379098013
313 98 6 0 -0.612785515403375 6.6102039026469 10.5369569035247
314 98 7 0 0.347214484596625 6.6102039026469 10.5369569035247
315 98 6 0 0.587214484596625 5.6802039026469 10.5369569035247
316 99 6 0 -0.374364616144448 12.8743610744737 8.50966060068458
317 99 7 0 0.585635383855551 12.8743610744737 8.50966060068458
318 99 6 0 0.825635383855551 11.9443610744737 8.50966060068458
319 100 6 0 8.50643621801399 3.23761404067278 3.77502367948182
320 100 7 0 9.46643621801399 3.23761404067278 3.77502367948182
321 100 6 0 9.70643621801399 2.30761404067278 3.77502367948182
322 101 6 0 5.67817355317064 6.62845973315649 8.90472170314752
323 101 7 0 6.63817355317064 6.62845973315649 8.90472170314752
324 101 6 0 6.87817355317064 5.69845973315649 8.90472170314752
325 102 6 0 8.28639380444772 7.85166182363406 9.64591720257886
326 102 7 0 9.24639380444773 7.85166182363406 9.64591720257886
327 102 6 0 9.48639380444773 6.92166182363406 9.64591720257886
328 103 6 0 5.17823062880896 3.0746265400108 14.1016434284393
329 103 7 0 6.13823062880896 3.0746265400108 14.1016434284393
330 103 6 0 6.37823062880896 2.14462654001079 14.1016434284393
331 104 6 0 2.60241762662306 1.90928514622152 2.97695034183562
332 104 7 0 3.56241762662306 1.90928514622152 2.97695034183562
333 104 6 0 3.80241762662306 0.979285146221518 2.97695034183562
334 105 6 0 10.5509855299909 13.9704120477568 11.6890610265546
335 105 7 0 11.5109855299909 13.9704120477568 11.6890610265546
336 105 6 0 11.7509855299909 13.0404120477568 11.6890610265546
337 106 6 0 3.34646348303184 8.34439385257661 13.6722830019426
338 106 7 0 4.30646348303184 8.34439385257661 13.6722830019426
339 106 6 0 4.54646348303184 7.41439385257661 13.6722830019426
340 107 6 0 13.1442135669943 1.47212507942691 7.27023300365545
341 107 7 0 14.1042135669943 1.47212507942691 7.27023300365545
342 107 6 0 14.3442135669943 0.542125079426914 7.27023300365545
343 108 6 0 -0.253620901638642 10.6986997909285 1.5836573462002
344 108 7 0 0.706379098361358 10.6986997909285 1.5836573462002
345 108 6 0 0.946379098361358 9.76869979092851 1.5836573462002
346 109 6 0 3.54336611621082 4.05713685712777 11.9302981963847
347 109 7 0 4.50336611621082 4.05713685712777 11.9302981963847
348 109 6 0 4.74336611621082 3.12713685712777 11.9302981963847
349 110 6 0 5.71894097884186 7.77943717123941 13.3518661872949
350 110 7 0 6.67894097884186 7.77943717123941 13.3518661872949
351 110 6 0 6.91894097884186 6.84943717123941 13.3518661872949
352 111 6 0 5.1414644582849 1.51845303521492 10.1786621671636
353 111 7 0 6.1014644582849 1.51845303521492 10.1786621671636
354 111 6 0 6.3414644582849 0.588453035214916 10.1786621671636
355 112 6 0 11.8290883144084 4.46808043675497 2.58224463905208
356 112 7 0 12.7890883144084 4.46808043675497 2.58224463905208
357 112 6 0 13.0290883144084 3.53808043675497 2.58224463905208
358 113 6 0 12.7950063014589 1.91942638292909 4.83280210406519
359 113 7 0 13.7550063014589 1.91942638292909 4.83280210406519
360 113 6 0 13.9950063014589 0.989426382929087 4.83280210406519
361 114 6 0 12.6490494345501 15.1654435325786 12.7646953705698
362 114 7 0 13.6090494345501 15.1654435325786 12.7646953705698
363 114 6 0 13.8490494345501 14.2354435325786 12.7646953705698
364 115 6 0 7.82635533993132 6.23333752312697 4.9856100382749
365 115 7 0 8.78635533993132 6.23333752312697 4.9856100382749
366 115 6 0 9.02635533993132 5.30333752312697 4.9856100382749
367 116 6 0 3.36335225656629 3.26655708760023 5.59433330898173
368 116 7 0 4.32335225656629 3.26655708760023 5.59433330898173
369 116 6 0 4.56335225656629 2.33655708760023 5.59433330898173
370 117 6 0 6.32487980226986 3.96713864099234 1.19823916233145
371 117 7 0 7.28487980226986 3.96713864099234 1.19823916233145
372 117 6 0 7.52487980226986 3.03713864099234 1.19823916233145
373 118 6 0 12.9422262303717 3.3334921479132 11.6629171790555
374 118 7 0 13.9022262303717 3.3334921479132 11.6629171790555
375 118 6 0 14.1422262303717 2.4034921479132 11.6629171790555
376 119 6 0 4.7572078525275 12.5501509142946 1.72044675447978
377 119 7 0 5.7172078525275 12.5501509142946 1.72044675447978
378 119 6 0 5.9572078525275 11.6201509142946 1.72044675447978
379 120 6 0 4.07787849937566 4.53728039207868 1.53831998468377
380 120 7 0 5.03787849937566 4.53728039207868 1.53831998468377
381 120 6 0 5.27787849937566 3.60728039207868 1.53831998468377
382 121 6 0 7.46259075516835 8.22330174426548 12.6051614829339
383 121 7 0 8.42259075516835 8.22330174426548 12.6051614829339
384 121 6 0 8.66259075516835 7.29330174426548 12.6051614829339
385 122 6 0 8.43262652328238 1.84109897859395 3.74111561221071
386 122 7 0 9.39262652328238 1.84109897859395 3.74111561221071
387 122 6 0 9.63262652328238 0.911098978593945 3.74111561221071
388 123 6 0 5.3923780743219 10.7360992316995 13.5921399167273
389 123 7 0 6.3523780743219 10.7360992316995 13.5921399167273
390 123 6 0 6.5923780743219 9.80609923169948 13.5921399167273
391 124 6 0 13.2163836881239 12.496107133748 10.9125830826815
392 124 7 0 14.1763836881239 12.496107133748 10.9125830826815
393 124 6 0 14.4163836881239 11.566107133748 10.9125830826815
394 125 6 0 12.8683490333799 15.2737119960971 6.53784101712517
395 125 7 0 13.8283490333799 15.2737119960971 6.53784101712517
396 125 6 0 14.0683490333799 14.3437119960971 6.53784101712517
397 126 6 0 -0.637743826517835 2.64581992681138 1.18324585841037
398 126 7 0 0.322256173482165 2.64581992681138 1.18324585841037
399 126 6 0 0.562256173482165 1.71581992681138 1.18324585841037
400 127 6 0 4.50774724289775 12.0884751846921 7.17484280350618
401 127 7 0 5.46774724289775 12.0884751846921 7.17484280350618
402 127 6 0 5.70774724289775 11.1584751846921 7.17484280350618
403 128 6 0 5.73985129172914 5.61688711209223 1.9563401537016
404 128 7 0 6.69985129172914 5.61688711209223 1.9563401537016
405 128 6 0 6.93985129172914 4.68688711209223 1.9563401537016
406 129 6 0 6.66045462872833 14.9113900486287 1.75333629129454
407 129 7 0 7.62045462872833 14.9113900486287 1.75333629129454
408 129 6 0 7.86045462872833 13.9813900486287 1.75333629129454
409 130 6 0 4.65452758988366 4.02368758380413 14.7104082175065
410 130 7 0 5.61452758988366 4.02368758380413 14.7104082175065
411 130 6 0 5.85452758988366 3.09368758380413 14.7104082175065
412 131 6 0 2.8354739611689 4.70848548267037 12.8605983371381
413 131 7 0 3.7954739611689 4.70848548267037 12.8605983371381
414 131 6 0 4.0354739611689 3.77848548267037 12.8605983371381
415 132 6 0 12.8420621661656 9.99133887043223 11.3498751469888
416 132 7 0 13.8020621661656 9.99133887043223 11.3498751469888
417 132 6 0 14.0420621661656 9.06133887043223 11.3498751469888
418 133 6 0 7.17815107709728 14.8101635886729 3.99231658433564
419 133 7 0 8.13815107709728 14.8101635886729 3.99231658433564
420 133 6 0 8.37815107709728 13.8801635886729 3.99231658433564
421 134 6 0 12.5457659018878 8.51926535525359 1.09537887736224
422 134 7 0 13.5057659018878 8.51926535525359 1.09537887736224
423 134 6 0 13.7457659018878 7.58926535525359 1.09537887736224
424 135 6 0 2.62118842380121 2.5781668237783 5.32975399517454
425 135 7 0 3.58118842380121 2.5781668237783 5.32975399517454
426 135 6 0 3.82118842380121 1.6481668237783 5.32975399517454
427 136 6 0 7.90708985921927 1.09300129272975 12.9071254923474
428 136 7 0 8.86708985921927 1.09300129272975 12.9071254923474
429 136 6 0 9.10708985921927 0.16300129272975 12.9071254923474
430 137 6 0 11.7479084715899 3.11546260299161 8.69079830590636
431 137 7 0 12.7079084715899 3.11546260299161 8.69079830590636
432 137 6 0 12.9479084715899 2.18546260299161 8.69079830590636
433 138 6 0 4.49407983032987 7.98894684686325 7.19122949754819
434 138 7 0 5.45407983032987 7.98894684686325 7.19122949754819
435 138 6 0 5.69407983032987 7.05894684686325 7.19122949754819
436 139 6 0 10.9761373365484 13.8227544926945 14.4932098255958
437 139 7 0 11.9361373365484 13.8227544926945 14.4932098255958
438 139 6 0 12.1761373365484 12.8927544926945 14.4932098255958
439 140 6 0 14.0312723424006 1.66908531723544 11.6473748639692
440 140 7 0 14.9912723424006 1.66908531723544 11.6473748639692
441 140 6 0 15.2312723424006 0.73908531723544 11.6473748639692
442 141 6 0 6.26476323508658 7.43906806380488 1.09136837068945
443 141 7 0 7.22476323508658 7.43906806380488 1.09136837068945
444 141 6 0 7.46476323508658 6.50906806380488 1.09136837068945
445 142 6 0 3.48317587209865 7.03477756394073 14.8115207988303
446 142 7 0 4.44317587209865 7.03477756394073 14.8115207988303
447 142 6 0 4.68317587209865 6.10477756394073 14.8115207988303
448 143 6 0 5.81061098651961 13.5291030227114 0.0483874278143048
449 143 7 0 6.77061098651961 13.5291030227114 0.0483874278143048
450 143 6 0 7.01061098651961 12.5991030227114 0.0483874278143048
451 144 6 0 6.47271573121659 9.88403018372133 3.22936989250593
452 144 7 0 7.43271573121659 9.88403018372133 3.22936989250593
453 144 6 0 7.6727157312166 8.95403018372133 3.22936989250593
454 145 6 0 3.18879097511061 14.872105727382 11.5066147560719
455 145 7 0 4.14879097511061 14.872105727382 11.5066147560719
456 145 6 0 4.38879097511061 13.942105727382 11.5066147560719
457 146 6 0 7.65131237494759 10.7865488626435 2.41680734558031
458 146 7 0 8.61131237494759 10.7865488626435 2.41680734558031
459 146 6 0 8.85131237494759 9.85654886264354 2.41680734558031
460 147 6 0 -0.115336699672043 1.50777090032585 13.1983103428502
461 147 7 0 0.844663300327957 1.50777090032585 13.1983103428502
462 147 6 0 1.08466330032796 0.57777090032585 13.1983103428502
463 148 6 0 13.2647372670192 9.36294601456262 12.4392652802635
464 148 7 0 14.2247372670192 9.36294601456262 12.4392652802635
465 148 6 0 14.4647372670192 8.43294601456262 12.4392652802635
466 149 6 0 8.03201387680136 0.994495165478438 2.24230351159349
467 149 7 0 8.99201387680136 0.994495165478438 2.24230351159349
468 149 6 0 9.23201387680136 0.0644951654784381 2.24230351159349
469 150 6 0 5.16726172107272 14.9774551861361 4.2828308371827
470 150 7 0 6.12726172107272 14.9774551861361 4.2828308371827
471 150 6 0 6.36726172107272 14.0474551861361 4.2828308371827
472 151 6 0 3.6425293392688 8.5161555958353 0.00940197380259633
473 151 7 0 4.6025293392688 8.5161555958353 0.00940197380259633