LAMMPS (29 Sep 2021 - Update 1)
Reading data file ...
  triclinic box = (0.0000000 0.0000000 0.0000000) to (15.000000 15.000000 15.000000) with tilt (0.0000000 0.0000000 0.0000000)
  2 by 4 by 4 MPI processor grid
  reading atoms ...
  1524 atoms
  scanning bonds ...
  2 = max bonds/atom
  scanning angles ...
  6 = max angles/atom
  scanning dihedrals ...
  10 = max dihedrals/atom
  scanning impropers ...
  1 = max impropers/atom
  reading bonds ...
  1023 bonds
  reading angles ...
  542 angles
  reading dihedrals ...
  52 dihedrals
  reading impropers ...
  2 impropers
Finding 1-2 1-3 1-4 neighbors ...
  special bond factors lj:    0        0        1       
  special bond factors coul:  0        0        1       
     4 = max # of 1-2 neighbors
     6 = max # of 1-3 neighbors
    10 = max # of special neighbors
  special bonds CPU = 0.002 seconds
  read_data CPU = 0.018 seconds
WARNING: Using 'neigh_modify every 1 delay 0 check yes' setting during minimization (../min.cpp:188)
Neighbor list info ...
  update every 1 steps, delay 0 steps, check yes
  max neighbors/atom: 10000, page size: 100000
  master list distance cutoff = 13
  ghost atom cutoff = 13
  binsize = 6.5, bins = 3 3 3
  3 neighbor lists, perpetual/occasional/extra = 3 0 0
  (1) pair hbond/dreiding/lj, perpetual, skip from (3)
      attributes: full, newton on
      pair build: skip
      stencil: none
      bin: none
  (2) pair lj/cut, perpetual, half/full from (3)
      attributes: half, newton on
      pair build: halffull/newton
      stencil: none
      bin: none
  (3) neighbor class addition, perpetual
      attributes: full, newton on
      pair build: full/bin
      stencil: full/bin/3d
      bin: standard
Setting up cg style minimization ...
  Unit style    : real
  Current step  : 0
WARNING: Energy due to 1 extra global DOFs will be included in minimizer energies
Per MPI rank memory allocation (min/avg/max) = 14.54 | 14.89 | 15.47 Mbytes
Step Temp E_pair E_mol TotEng Press Volume 
       0            0 1.1433311e+16    211.88075 1.1433311e+16 9.2914252e+17         3375 
    5859            0   -1167.1254    69.946218   -1097.1792    158.26425    35758.399 
Loop time of 4.93857 on 32 procs for 5859 steps with 1524 atoms

100.0% CPU use with 32 MPI tasks x no OpenMP threads

Minimization stats:
  Stopping criterion = energy tolerance
  Energy initial, next-to-last, final = 
    1.14333107697466e+16  -1096.60824352224  -1096.70688886966
  Force two-norm initial, final = 8.4627501e+17 135.44467
  Force max component initial, final = 3.7168898e+17 112.02212
  Final line search alpha, max atom move = 2.1133371e-05 0.0023674051
  Iterations, force evaluations = 5859 5859

MPI task timing breakdown:
Section |  min time  |  avg time  |  max time  |%varavg| %total
---------------------------------------------------------------
Pair    | 1.3496     | 2.7503     | 4.1586     |  41.0 | 55.69
Bond    | 0.0066849  | 0.012886   | 0.028317   |   3.9 |  0.26
Neigh   | 0.097352   | 0.097564   | 0.097719   |   0.0 |  1.98
Comm    | 0.29038    | 1.7002     | 3.1041     |  52.3 | 34.43
Output  | 0          | 0          | 0          |   0.0 |  0.00
Modify  | 0          | 0          | 0          |   0.0 |  0.00
Other   |            | 0.3777     |            |       |  7.65

Nlocal:        47.6250 ave          71 max          22 min
Histogram: 1 1 0 6 7 6 4 5 1 1
Nghost:        2048.00 ave        2095 max        1990 min
Histogram: 1 2 4 1 7 3 2 4 6 2
Neighs:        5196.53 ave        7832 max        2316 min
Histogram: 2 1 1 7 6 5 2 3 2 3

Total # of neighbors = 166289
Ave neighs/atom = 109.11352
Ave special neighs/atom = 2.0538058
Neighbor list builds = 95
Dangerous builds = 0
1500 atoms in group WAT
24 atoms in group MOL
Neighbor list info ...
  update every 2 steps, delay 10 steps, check yes
  max neighbors/atom: 10000, page size: 100000
  master list distance cutoff = 13
  ghost atom cutoff = 13
  binsize = 6.5, bins = 6 6 6
  4 neighbor lists, perpetual/occasional/extra = 3 1 0
  (1) pair hbond/dreiding/lj, perpetual, skip from (4)
      attributes: full, newton on
      pair build: skip
      stencil: none
      bin: none
  (2) pair lj/cut, perpetual, half/full from (4)
      attributes: half, newton on
      pair build: halffull/newton
      stencil: none
      bin: none
  (3) compute group/group, occasional, copy from (2)
      attributes: half, newton on
      pair build: copy
      stencil: none
      bin: none
  (4) neighbor class addition, perpetual
      attributes: full, newton on
      pair build: full/bin
      stencil: full/bin/3d
      bin: standard
Setting up Verlet run ...
  Unit style    : real
  Current step  : 5859
  Time step     : 1
Per MPI rank memory allocation (min/avg/max) = 13.39 | 13.44 | 13.93 Mbytes
Step Temp E_pair E_mol TotEng Press Volume 
    5859          300   -1167.1254    69.946218    264.75294    1899.3103    35758.399 
    5900    285.31388   -1149.6976    178.30688    323.86972    1553.2572    35758.399 
    6000    299.66972   -1118.8424    195.47318    437.06351   -182.69988    35758.399 
    6100    297.75445   -1167.4246     234.3122    418.62541    -354.2207    35758.399 
    6200    303.01618   -1153.5089    210.07874     432.1947   -303.59576    35758.399 
    6300    300.50875   -1119.3339    197.51686    442.42467   -125.95642    35758.399 
    6400    307.44727   -1154.4671    200.82086     442.0948    153.89578    35758.399 
    6500    289.32006   -1142.2992    212.65467    383.80309    100.90604    35758.399 
    6600    300.33103   -1191.6536    219.32083    391.10209    348.55546    35758.399 
    6700    298.70936   -1143.1388    218.92576    431.85988    340.04761    35758.399 
    6800    308.99018    -1166.872    208.95795    444.83141    350.25608    35758.399 
    6900    301.16493   -1124.8003    212.68967    455.11001    686.13928    35758.399 
    7000    291.81816   -1153.3879    232.65654    404.05706    323.76365    35758.399 
    7100     288.2182   -1098.0364    234.85918    445.26814     474.9533    35758.399 
    7200    296.23613   -1105.4711    214.09672    453.47067    568.30242    35758.399 
    7300    294.34488   -1150.4221    202.53843    388.37545      796.764    35758.399 
    7400    300.94373   -1138.7949    234.94743    462.36895    558.85324    35758.399 
    7500    296.60409   -1068.3804    229.26502    507.40008    906.05154    35758.399 
    7600    299.00601   -1064.2032    240.18291    533.39929    725.89081    35758.399 
    7700    308.76282   -1100.7778     232.2517    533.18718     749.6316    35758.399 
    7800    291.84634   -1111.7892    237.33603    450.46317    451.56765    35758.399 
    7900     298.5503   -1131.4554    233.98627     457.8817    189.97306    35758.399 
    8000    293.50117   -1135.5797    234.71923    431.56846    290.66705    35758.399 
    8100    296.55382     -1105.27    224.08563     465.1028    691.91252    35758.399 
    8200    307.63758    -1097.789    234.24245    533.05841    574.83731    35758.399 
    8300    309.60455   -1088.5737    241.19085    558.15175    254.43312    35758.399 
    8400    292.25743   -1064.6158     244.4909    506.65768    73.853271    35758.399 
    8500    294.97531   -1077.6035    241.61896    503.13663    128.73255    35758.399 
    8600    301.20961   -1103.3005    253.16968    517.29263     446.7993    35758.399 
    8700    301.55484   -1097.9185    252.33253    523.40475    569.91591    35758.399 
    8800     295.0229   -1088.5991    244.75999    495.49807     534.8486    35758.399 
    8900     300.5351   -1126.7249    241.08018    478.71666    441.80644    35758.399 
    9000    297.36465   -1142.2178    253.64631    461.39669    237.39755    35758.399 
    9100    293.28051   -1137.9218    252.63243    446.13777    585.22856    35758.399 
    9200    295.56345   -1153.3068      246.274    434.75836    422.86106    35758.399 
    9300    297.68549   -1119.2086    254.64573    486.86191    200.88194    35758.399 
    9400    303.26999    -1173.445    245.17688    448.50901    359.45498    35758.399 
    9500    299.35582   -1168.8759    255.55912    445.69095     158.4694    35758.399 
    9600     280.5445   -1141.5618    257.46349    389.51024    305.82653    35758.399 
    9700    291.05358   -1145.5453    266.33288    442.10492   -334.67659    35758.399 
    9800    303.98538   -1130.4059    248.63096    498.24991    632.69078    35758.399 
    9900    291.82029   -1159.1389    271.81053    437.46972    420.34176    35758.399 
   10000    308.15951   -1161.3471    248.37166    485.99897    801.03796    35758.399 
   10100    301.94267   -1165.4485    269.07354    474.37646    663.22564    35758.399 
   10200    308.39217   -1173.5912    263.29485    489.73432    907.63451    35758.399 
   10300    296.43186   -1159.8573     266.6195    452.49576    184.17638    35758.399 
   10400    290.04273   -1145.1772    270.24714    441.79831    597.79757    35758.399 
   10500    296.35885   -1176.3807    259.65627     428.6777    520.91953    35758.399 
   10600    303.89399   -1183.6584    265.30946    461.26102    549.81372    35758.399 
   10700    286.55132   -1187.6664     253.6845    366.89621    221.11563    35758.399 
   10800    293.83673    -1146.999    268.41629    455.36951    699.26619    35758.399 
   10900    298.06091   -1162.1605    276.72939    467.69791    311.67394    35758.399 
   11000    302.89546   -1161.9907     261.5459    474.63202    624.82019    35758.399 
   11100    309.33712   -1154.4678    278.65432    528.50703    937.53011    35758.399 
   11200    297.49555   -1183.5378    288.97092    455.99566    686.25084    35758.399 
   11300    296.47609   -1186.0011     283.5364    443.46967    803.96136    35758.399 
   11400    295.84128   -1173.8606    279.11307    448.30493    765.70237    35758.399 
   11500    305.27359   -1143.3469    275.75006    518.27619     509.6555    35758.399 
   11600    309.20952   -1151.9042    269.51008    521.34706    1015.6483    35758.399 
   11700    298.92837   -1129.3936    279.66662    507.34017    911.14957    35758.399 
   11800    301.45137   -1149.9366    280.37066    498.95505    325.26257    35758.399 
   11900    303.22461   -1163.0708    285.79272    499.29299    1039.5411    35758.399 
   12000    297.52158   -1127.1785    294.02453    517.52668    699.80028    35758.399 
   12100    284.49213   -1182.3281    264.81961    374.02143    370.10053    35758.399 
   12200    300.37472   -1144.5835    268.91165    487.96142    574.33007    35758.399 
   12300    297.59641   -1151.7428    295.58411    494.86167     33.16003    35758.399 
   12400    295.14901   -1185.4444      271.443    425.90829    405.77524    35758.399 
   12500    297.93619   -1179.1624    264.91002    438.31053    586.35516    35758.399 
   12600    300.04429   -1199.2094    288.86365     451.7875    484.41513    35758.399 
   12700    290.70686   -1190.7017    278.54994     407.5916    629.78014    35758.399 
   12800    297.93528   -1226.9345    283.14168    408.76598    82.054053    35758.399 
   12900     299.6438     -1212.39     290.1227    438.04778    148.50081    35758.399 
   13000    306.98789   -1212.9717    287.27431     467.9582   -70.935594    35758.399 
   13100    293.55701   -1191.6929    273.38561    414.37517    107.82617    35758.399 
   13200    307.01304   -1216.7415    278.53676    455.56494    685.11461    35758.399 
   13300    293.26849   -1201.6223    284.84618    414.59642    527.02396    35758.399 
   13400    288.61514   -1197.7221    284.94322    397.46852    47.127901    35758.399 
   13500     297.8234    -1183.785    293.76917      462.035    522.77563    35758.399 
   13600    288.48782   -1238.0762     283.9125     355.5057   -106.70611    35758.399 
   13700    298.44257   -1232.6624    297.19434    419.39365   -101.81033    35758.399 
   13800    295.06578   -1184.4944    286.47963    441.51711    160.71886    35758.399 
   13900    303.77032   -1175.9049    280.93611    484.07969    746.20668    35758.399 
   14000    309.72128    -1229.537    300.39806    476.92558    793.15278    35758.399 
   14100    305.37096   -1185.6865     282.9183    483.54679    1189.5264    35758.399 
   14200    303.90076   -1222.3238    287.14705    444.46392    251.92019    35758.399 
   14300    303.24357   -1205.0135    293.80173    465.44537    696.05715    35758.399 
   14400    299.87524    -1222.546    288.37353    427.19326    454.11393    35758.399 
   14500    295.19146   -1201.3179    289.56564    428.35013    517.94852    35758.399 
   14600    302.68332   -1204.8631    295.73946    464.99017    451.93718    35758.399 
   14700    307.65195    -1244.916    288.35993    440.11417    720.84388    35758.399 
   14800    308.31793   -1192.9768    305.71282    512.42959    639.18868    35758.399 
   14900    298.74627   -1262.5134    315.04454    408.77163    786.28259    35758.399 
   15000    303.92091   -1204.0632    298.42841    474.09739    570.32576    35758.399 
   15100    295.68303   -1213.1378    314.49825    443.69447    442.82921    35758.399 
   15200    299.98638   -1191.0109    298.84378     469.7032   -11.799642    35758.399 
   15300     296.1824   -1173.0736    304.35967    475.88715    799.29151    35758.399 
   15400    290.08827   -1210.2197    310.66523    417.38067    367.18312    35758.399 
   15500    299.05998   -1224.7608    308.28939    441.19326    723.20485    35758.399 
   15600    298.30497   -1174.4589    306.70892    486.48712     909.3152    35758.399 
   15700    303.12289   -1194.0586    315.39953    497.45023    453.32049    35758.399 
   15800    307.11188   -1228.5867    305.03101    470.66276     421.7138    35758.399 
   15900    292.32655   -1200.3242    293.50064    420.27285   -82.944586    35758.399 
   16000    298.90925   -1187.5691      293.017    462.42823     133.4252    35758.399 
   16100    298.83535   -1228.0676     295.9064    424.48372    -155.6232    35758.399 
   16200    299.45529   -1243.6648    313.03672    428.83117    495.69232    35758.399 
   16300    293.50882   -1212.8273    298.06007    417.69641    371.55815    35758.399 
   16400    296.77234   -1209.5271    323.79357    461.54571    717.22932    35758.399 
   16500    299.96178   -1179.6153     312.2272    494.37048    638.98603    35758.399 
   16600    306.59192   -1200.6696    310.76045    501.94875    830.30753    35758.399 
   16700    290.77509   -1214.4243    318.28816      423.917     1277.076    35758.399 
   16800    294.55516   -1259.3482    302.37862    380.24417     807.1447    35758.399 
   16900    295.05744   -1219.1544    317.65074    437.99039    1028.3209    35758.399 
   17000    297.03821   -1239.6321    313.90216    422.75627    1005.0361    35758.399 
   17100    303.42959   -1250.0744    318.05612    445.48342    836.68361    35758.399 
   17200    302.75481   -1199.2794     320.0619    495.22088     856.7596    35758.399 
   17300     302.8727   -1230.9869    314.35786    458.34449    788.76639    35758.399 
   17400       305.84    -1186.467    319.22702    521.20444    737.00574    35758.399 
   17500    303.67415   -1184.5226     324.1289     518.2182    907.58286    35758.399 
   17600    298.06562   -1217.9406    310.30128    445.51115    502.20629    35758.399 
   17700    295.25408   -1203.7811    322.97398    459.57961     885.6215    35758.399 
   17800    303.76648    -1244.288    320.39913    455.14223     416.8196    35758.399 
   17900    295.67051   -1234.8034     335.6703    443.14413    167.26573    35758.399 
   18000    313.24473   -1176.5528    341.03774    586.54512     730.0459    35758.399 
   18100    306.48086   -1218.5464    320.46072    493.26802    653.25474    35758.399 
   18200    299.31546   -1179.8685    334.99812    513.95405     630.5511    35758.399 
   18300    292.32979   -1204.4264    320.41777    443.10242    16.662791    35758.399 
   18400     300.6773   -1194.0025    324.83174    495.83619    177.55431    35758.399 
   18500    305.78403   -1234.5286    326.98058    480.64226    257.03504    35758.399 
   18600    302.94259   -1239.9517    341.66851    477.00759    124.56541    35758.399 
   18700    299.31548   -1183.6875    327.38151    502.51853    249.87396    35758.399 
   18800    295.52326   -1201.0417    324.36172    464.92875    -173.4967    35758.399 
   18900    298.06986   -1265.9012    338.09373    425.36231    324.99955    35758.399 
   19000    292.68512    -1245.401    323.01712    406.34037   -69.027775    35758.399 
   19100    294.39466   -1238.2984    330.57058     428.7573    99.633905    35758.399 
   19200    305.80392   -1223.8802    354.40573    518.80609      598.096    35758.399 
   19300    291.93855   -1231.5019    334.37503    428.20809    664.03247    35758.399 
   19400    298.30509   -1188.3196    331.87524    497.79323    625.22624    35758.399 
   19500    305.34135   -1217.3345    325.13694    493.98304    685.88793    35758.399 
   19600    308.32584   -1198.3094    339.57346     540.9936    482.78956    35758.399 
   19700    297.44791   -1241.0261    305.56978    414.88984    483.43745    35758.399 
   19800    300.82565   -1266.9715    325.26235    423.97125      364.897    35758.399 
   19900    316.69467   -1259.0633    330.80016    509.45896   -9.4086112    35758.399 
   20000    300.16973   -1227.7647    316.39841    451.33641    77.888547    35758.399 
   20100    311.18222    -1229.027    346.79963     530.4695     -26.7252    35758.399 
   20200    302.47055   -1253.7971    331.26329    450.61408    175.31155    35758.399 
   20300    303.08566   -1294.1287    314.76635    396.57799    349.60361    35758.399 
   20400    296.49772   -1232.6446    354.11826    467.50619    292.07249    35758.399 
   20500    301.66061   -1206.5509    354.73298    517.65299    378.43902    35758.399 
   20600    290.64776   -1236.7051    326.05332    408.82326    397.00975    35758.399 
   20700    307.67221   -1293.7628    315.12401    418.12341    577.87408    35758.399 
   20800    303.39253   -1292.2643    345.02158    430.09069    889.45585    35758.399 
   20900    298.48033    -1323.255    325.18185    356.95998    807.33343    35758.399 
   21000    299.72938   -1264.9394    345.11081    440.87499    926.95326    35758.399 
   21100    296.69789    -1282.077    322.56492    387.42917    870.99673    35758.399 
   21200    308.28585   -1292.0113    339.51772     447.0544    992.92198    35758.399 
   21300    301.22936   -1219.4917    337.00322    485.02464    450.33494    35758.399 
   21400    297.78154   -1227.7236    339.06298    463.20022    300.81324    35758.399 
   21500    311.49631   -1169.3488    334.16714    578.94112    632.26406    35758.399 
   21600    304.12854   -1252.1903    343.67663    472.16105     491.5568    35758.399 
   21700    301.82737   -1241.0264     337.0468    466.24837    283.21785    35758.399 
   21800    305.53712   -1255.3175    333.78473    465.53663   -521.97309    35758.399 
   21900    300.46395   -1235.8367    347.41841    475.62001   -156.15473    35758.399 
   22000    299.46283   -1211.7061     357.4009    505.18831   -416.57809    35758.399 
   22100    300.19071   -1182.4567    364.95771    545.29891   -369.09449    35758.399 
   22200    302.34163   -1213.1885    343.44436    502.81842   -200.36106    35758.399 
   22300    297.74277   -1192.3004    352.37163    511.75606    179.47639    35758.399 
   22400     313.2179   -1250.9207    335.83996     506.8576    307.31939    35758.399 
   22500    288.70083   -1223.7052     344.0195    430.95073    171.07713    35758.399 
   22600    300.88579   -1234.8373    372.50007    503.61613    379.36821    35758.399 
   22700    289.49351   -1212.5168    359.46306    461.18128    -296.3701    35758.399 
   22800    287.43543   -1214.0478    348.66806      439.512   -428.14812    35758.399 
   22900    306.70932   -1201.8832    342.09277    532.60043   -459.07562    35758.399 
   23000     293.8803   -1232.3043    365.16702    467.01278   -865.34989    35758.399 
   23100    289.20395   -1241.0601    350.61998    422.48038   -502.39916    35758.399 
   23200    304.60156   -1243.0781    340.18997      479.934   -171.61694    35758.399 
   23300    298.57293   -1217.2046    356.07261    494.32152    282.54314    35758.399 
   23400    293.03699   -1196.1038    364.19889    498.41674    391.59819    35758.399 
   23500    302.07057   -1232.0282    333.21546    472.51933    228.46235    35758.399 
   23600    300.88435   -1227.1553    355.58484    494.37645    570.21829    35758.399 
   23700    304.56142   -1216.1822    336.64845    503.10615    867.33064    35758.399 
   23800    304.66852   -1268.8399    335.80937    450.09565    9.6166633    35758.399 
   23900    293.29091   -1217.6696    351.93938    465.74411   -130.46507    35758.399 
   24000    307.00073   -1269.6344    345.93541     470.0149   -17.435484    35758.399 
   24100    305.62989   -1283.1416    353.10352    457.45249   -56.700934    35758.399 
   24200    303.37867   -1267.3457    349.32802    459.25285    84.635615    35758.399 
   24300    301.94868   -1222.4355    367.62969    515.97289    53.231895    35758.399 
   24400    296.72287   -1238.3791    352.47987    461.15544    150.54952    35758.399 
   24500    309.94677   -1207.8232    363.28939    562.55437   -180.99357    35758.399 
   24600    306.19591   -1211.4209    348.26129    526.90049     168.2908    35758.399 
   24700    298.58364    -1188.402    363.67125    530.77143    87.054227    35758.399 
   24800    286.77737   -1202.4953    364.80825    464.21733    240.12487    35758.399 
   24900    305.69416   -1220.6939    365.60635    532.69473    585.47102    35758.399 
   25000     305.2044   -1207.4093    357.71666    535.86627   -24.126773    35758.399 
   25100    293.05742   -1222.6836    375.75097    483.48172    102.72665    35758.399 
   25200    308.78529   -1288.5126    367.90542     481.2081    463.44807    35758.399 
   25300    291.83589   -1243.0391    357.68275    439.51259    832.46369    35758.399 
   25400    297.92794   -1257.5009    342.73313    437.75771    838.59655    35758.399 
   25500    294.84666   -1261.2729    342.49563    419.75988    944.25838    35758.399 
   25600    294.58445   -1280.3875      351.335    408.29424     553.0396    35758.399 
   25700    293.71874   -1283.6428    373.73421    423.50798     554.7476    35758.399 
   25800    297.43263   -1241.3265    368.20789    477.15824    209.05594    35758.399 
   25900    290.53935   -1225.5412    340.17184    433.61352     217.6298    35758.399 
   26000    300.45079   -1207.9599    360.11512    516.13383    303.14187    35758.399 
   26100    303.32168   -1228.7572     367.8718    516.12638    429.48989    35758.399 
   26200    299.54338   -1200.5092    357.61471    516.96462    509.48005    35758.399 
   26300    289.89383   -1232.5678    363.19686    446.68149    243.55525    35758.399 
   26400    293.77501   -1250.1672    363.18325     446.6881   -63.769873    35758.399 
   26500    303.43179   -1265.2298    372.07488    484.35672    144.23622    35758.399 
   26600    297.71594   -1234.8306    365.20171    481.93406    283.92528    35758.399 
   26700    307.76771   -1212.9497    366.19378    550.43986    468.46351    35758.399 
   26800    304.87456   -1239.1232    355.86476    500.80304    121.61231    35758.399 
   26900    306.83363   -1225.9134    374.34847    541.39036     87.29854    35758.399 
   27000    303.03078   -1246.4531    362.62264    491.86067    542.10169    35758.399 
   27100    286.91826   -1229.6313    370.07382    442.98645    -49.20607    35758.399 
   27200    307.68959   -1241.9165    370.44531    525.36988    402.73759    35758.399 
   27300    306.72261   -1221.8503    377.57443    548.17535    231.07019    35758.399 
   27400    298.50998    -1237.459    380.44784    498.15666   -70.558598    35758.399 
   27500    289.89842   -1221.6522    380.75613     475.1772   -186.00393    35758.399 
   27600    300.24136   -1287.0133    359.22185    435.23642    7.2921609    35758.399 
   27700    310.63908   -1266.1528    370.41898    514.49733    527.98816    35758.399 
   27800     291.0625   -1296.6243    368.41012    393.14375    395.48844    35758.399 
   27900    298.72889   -1282.9458    399.32208    472.53784    247.53275    35758.399 
   28000    298.43325   -1230.7206    358.55735    482.65616    691.97368    35758.399 
   28100    310.17015   -1225.2457    383.78445    566.64105    994.12969    35758.399 
   28200    300.04706   -1228.8599     373.0766    506.36241    373.62161    35758.399 
   28300    305.34172   -1312.5564    371.51708    445.14295    621.57562    35758.399 
   28400    297.51534   -1298.3511    364.05543    416.35667    687.78462    35758.399 
   28500    297.68367   -1288.1232    364.46994    427.76329     331.3446    35758.399 
   28600    293.02795   -1251.9474    369.33214    447.66532    292.27081    35758.399 
   28700    285.30336   -1266.5395    384.60041    413.27362    171.91191    35758.399 
   28800    299.73135   -1245.0614    390.13785    505.78895   -66.927012    35758.399 
   28900    295.64832   -1205.6935    368.05964    504.54257   -286.96652    35758.399 
   29000      292.908   -1223.5141    355.18519    461.40712   -32.551418    35758.399 
   29100    296.19167     -1228.06    386.73496    503.31813   -322.32883    35758.399 
   29200    297.41731   -1251.2044    367.51077    466.51363   -451.05293    35758.399 
   29300    302.86225   -1262.7606     390.9979    503.16335   0.17103827    35758.399 
   29400     307.7617   -1231.2317    402.06674    568.00347   -91.858092    35758.399 
   29500    299.39507   -1263.5016    386.09953    481.78379    159.98114    35758.399 
   29600    290.34941   -1232.7815    379.73576    465.07482   -141.01058    35758.399 
   29700    292.40271   -1231.6928    396.70501    492.45435    352.91375    35758.399 
   29800    310.47591   -1223.5156    387.24042    573.21518    403.30349    35758.399 
   29900    302.20995   -1232.1645    380.98287    520.78317    321.50418    35758.399 
   30000    298.18505   -1258.3557    355.10228    450.43918   -63.606804    35758.399 
   30100    301.94649   -1206.5853    402.11121    566.29463    419.85552    35758.399 
   30200    304.52555   -1222.8895    375.96961    535.55719    410.06299    35758.399 
   30300    291.97319    -1264.305    389.83032    451.01748     668.0696    35758.399 
   30400    308.71362   -1183.6961    379.43295    597.22683    533.33861    35758.399 
   30500    302.86469   -1247.0663    381.31669    509.18754    423.87278    35758.399 
   30600    301.46492    -1268.323    390.08993    490.34943    833.80481    35758.399 
   30700     300.6139   -1217.5129    394.98457    542.19077    787.84426    35758.399 
   30800    292.23261   -1240.2051    378.81032    465.27512    626.85389    35758.399 
   30900    297.67028   -1270.3659    390.59606    471.58591    55.925592    35758.399 
   31000    303.04789   -1264.2409    389.94021    501.46816   -25.292022    35758.399 
   31100    292.25755   -1272.7792    393.80123    447.80519    26.804908    35758.399 
   31200      301.024   -1314.4158    393.84843    446.01344    667.39187    35758.399 
   31300    296.58093   -1282.0749    381.40013    445.73551    525.99538    35758.399 
   31400    313.50079   -1292.5073    379.66251    510.37786     959.8219    35758.399 
   31500    295.92027   -1266.7016    399.71247    476.42194    761.90799    35758.399 
   31600    304.91034   -1302.2333    392.55991     474.5505    118.87039    35758.399 
   31700    293.60198   -1258.5204    392.90168    467.26788    163.68164    35758.399 
   31800    298.15229   -1261.9687    389.59537    481.17054   -155.55619    35758.399 
   31900    307.47772   -1256.9858    381.88197    520.77547    610.58443    35758.399 
   32000    300.22642   -1290.9918    392.83645    464.80468    30.640831    35758.399 
   32100    308.05008   -1314.5314    387.76479    471.71101    359.81924    35758.399 
   32200    298.30347   -1269.5621     406.2102     490.8784   -2.3738078    35758.399 
   32300    304.04531   -1205.6872    395.02067    569.63041    269.23185    35758.399 
   32400    293.41634   -1229.9904    395.66646    497.71982   -86.904156    35758.399 
   32500     303.0516   -1258.9035    392.55214    509.43433     54.27385    35758.399 
   32600    305.14207    -1249.476    400.71443    536.51436   -23.908283    35758.399 
   32700    300.29138   -1264.8169    423.20348    521.64148    264.82276    35758.399 
   32800    303.58831   -1233.2613    402.15433    547.11526   -223.01127    35758.399 
   32900    303.33125   -1252.3582    415.72152    540.41853    256.15597    35758.399 
   33000    300.85099   -1215.8753    401.04662    550.96672   -67.929663    35758.399 
   33100    302.46524   -1249.0847    409.45848    533.49754   -24.294856    35758.399 
   33200     293.7213   -1263.9641    392.36519    461.82932    16.252861    35758.399 
   33300     298.0247   -1237.4049    406.21637    521.77616   -85.658033    35758.399 
   33400    286.20495   -1239.7178    412.69462    472.28257    67.505486    35758.399 
   33500     302.2359   -1235.1706    399.91526    536.82725    186.18026    35758.399 
   33600     293.1756   -1293.6517    422.38675    459.68594     60.72457    35758.399 
   33700    299.24901   -1288.0592    395.51243    465.97604    1015.1793    35758.399 
   33800     293.4033   -1297.8866    395.44242    429.54042    562.53015    35758.399 
   33900    311.12067    -1259.402    411.49394    564.50933    932.29937    35758.399 
   34000    304.33778   -1297.9855    386.30601    469.94518    589.14033    35758.399 
   34100    300.15545   -1356.2561    387.47625    393.85802    453.10185    35758.399 
   34200    304.46109    -1284.466    404.03173    501.75013    444.21592    35758.399 
   34300    290.58689   -1267.4445     420.2623    472.01651    419.40361    35758.399 
   34400    303.11904   -1252.5185    418.09419    541.66757    239.82952    35758.399 
   34500    301.82256   -1267.0546    425.48105    528.63258    471.65624    35758.399 
   34600    293.18277   -1269.3708    399.95103    461.56363    115.57717    35758.399 
   34700    308.97769   -1276.9092    397.87384    523.65345   -365.67982    35758.399 
   34800    308.62493   -1235.0659    417.23254    583.25399    279.39172    35758.399 
   34900    294.56563   -1283.5908    410.80199    464.47252   -493.28226    35758.399 
   35000     296.0366   -1268.8529    406.94248    482.02871    285.63241    35758.399 
   35100    310.19698   -1283.3264    415.41733    540.31505    345.51444    35758.399 
   35200    304.81492   -1264.2243    405.56992    525.13636    311.07131    35758.399 
   35300    296.38395   -1278.9681    414.60429    481.15228    524.86933    35758.399 
   35400    309.21487   -1274.8163    418.09209    547.04128    357.93831    35758.399 
   35500    296.87495   -1254.6783    400.56535    493.63218    1032.1412    35758.399 
   35600     302.6897   -1303.5661    417.97686    488.55345    854.57497    35758.399 
   35700    296.12967    -1265.194    428.96525    508.13299    527.77481    35758.399 
   35800    300.30804   -1239.9238    393.51809    516.92487     384.4573    35758.399 
   35900    299.38608   -1302.7616    406.62712    463.01059    444.26239    35758.399 
   36000    297.80367   -1291.4515    401.92631    462.43611    63.769533    35758.399 
   36100    303.81695    -1261.895    416.62634     533.9916    888.58582    35758.399 
   36200    305.16085   -1291.7172    423.11686    516.76088    404.00663    35758.399 
   36300    303.09577   -1276.1087    398.95181    498.82932    429.27641    35758.399 
   36400    309.11525   -1344.6267    399.05811    457.74473    888.43926    35758.399 
   36500    301.44105   -1326.3896    393.84109    435.92563    301.97614    35758.399 
   36600    292.77697   -1327.7405    414.61722    416.01794    562.01707    35758.399 
   36700    297.77279   -1327.1243    405.24446    429.94123    198.33667    35758.399 
   36800    304.88291   -1323.2918    402.55856    463.36615    307.92244    35758.399 
   36900     304.1478   -1343.5583    433.25614    470.46002    647.17146    35758.399 
   37000    302.53655   -1279.6742    397.90822    491.68149    263.25504    35758.399 
   37100    297.25103   -1264.9279    399.88154    484.40603    735.02668    35758.399 
   37200    311.73708     -1280.01    402.83346    538.03926     648.8406    35758.399 
   37300    301.68445   -1302.1537    418.49537     485.9208    799.53691    35758.399 
   37400    303.59036   -1282.3343    402.25536    498.15262    643.84647    35758.399 
   37500    299.76523   -1291.7614    397.12708    466.23196    71.804387    35758.399 
   37600     295.4554   -1294.0511    375.83164    423.08119    552.83323    35758.399 
   37700    301.40343   -1327.7337    390.00828    430.57796    200.40278    35758.399 
   37800    302.48374   -1272.6299    410.99798    511.57581    123.33862    35758.399 
   37900    297.76781   -1329.0688    405.63785    428.36755   -368.29459    35758.399 
   38000    301.29876   -1271.1472    398.37788     495.0589    -48.13276    35758.399 
   38100    296.49513   -1313.0023     391.5015    424.51993    285.85249    35758.399 
   38200    302.34668   -1321.9262    419.73173    470.39098    126.80748    35758.399 
   38300     309.2885   -1351.3998    403.92979    456.62983    481.85384    35758.399 
   38400    295.42826   -1340.9055    402.23493    402.50689     198.0573    35758.399 
   38500    309.11506   -1331.9473    403.10981    474.47493    756.79738    35758.399 
   38600    301.97961    -1275.571      420.312    515.66007    247.18293    35758.399 
   38700    292.60071   -1302.8985    413.22622    438.66877    352.09785    35758.399 
   38800    298.28271   -1328.2169    422.78373    448.70282    412.50729    35758.399 
   38900     302.7618   -1298.2752    408.62495    484.81982   -56.699709    35758.399 
   39000    300.06229   -1271.1587     401.1633    492.21951    147.67333    35758.399 
   39100    295.28283   -1289.8398    404.39857      455.076    358.65726    35758.399 
   39200    297.77215   -1317.0253      401.033    435.82587    425.04207    35758.399 
   39300    292.07014   -1317.3845    422.41188     430.9597    778.88173    35758.399 
   39400    304.69237   -1330.1874    401.09566    454.14268    672.87231    35758.399 
   39500    300.77183   -1325.2385    400.55833    440.75591    157.65971    35758.399 
   39600    302.49492   -1311.4415    405.76141    467.57834   -513.44373    35758.399 
   39700    294.51906    -1303.504    401.30629    434.85221    5.0033604    35758.399 
   39800    296.53523   -1357.3991    393.63516    382.43887    426.20657    35758.399 
   39900    299.51214   -1322.3875    399.95325     437.2831    970.03741    35758.399 
   40000    289.74024   -1285.4214    405.05785    434.99162    544.79688    35758.399 
   40100    300.09731   -1347.4293    395.51526    410.45987    173.94775    35758.399 
   40200    298.27246   -1384.8714    399.92213    369.14021    403.05838    35758.399 
   40300    309.32307   -1333.2964    413.80847    484.76877    4.6660097    35758.399 
   40400     290.3635   -1335.2712    417.34843    400.26181   -807.84234    35758.399 
   40500      304.175   -1341.5383    421.66838    461.01577    -346.6713    35758.399 
   40600    292.17123   -1332.3295    433.56022    427.62199   -68.211094    35758.399 
   40700    303.98148   -1297.7489    427.00167    509.25994    27.292562    35758.399 
   40800    305.62811   -1280.4443    422.27572    529.31389    -24.02582    35758.399 
   40900    291.48492   -1314.2889    422.15992    431.14659   -752.87981    35758.399 
   41000    290.72954   -1296.6658    429.42639    452.60685   -249.85182    35758.399 
   41100     307.8391   -1291.6336    413.41251    519.29878    295.61878    35758.399 
   41200    294.73774   -1307.1025    420.87079    451.81092    74.929224    35758.399 
   41300    298.48062   -1322.3118    420.46016    453.18286    534.26345    35758.399 
   41400     311.1898   -1318.2851    421.74985    516.19609     259.1517    35758.399 
   41500    308.59971   -1363.1978    390.63702    428.41209     102.7216    35758.399 
   41600    301.49953   -1328.6883    376.63264    416.68397    216.58026    35758.399 
   41700     290.5099   -1344.4104    411.72385    386.16267    93.346519    35758.399 
   41800    296.62513   -1376.9976    424.73357    394.34695     797.0491    35758.399 
   41900    306.43469   -1304.1896    412.29616    499.25071    941.93642    35758.399 
   42000    297.01964    -1329.714    431.58577    450.27375    890.75499    35758.399 
   42100    302.34833   -1342.8869    423.70683    453.41293    691.99791    35758.399 
   42200    295.20751     -1316.06    420.86986    444.98512    198.17156    35758.399 
   42300    304.54348   -1332.9002    410.27073    459.92902   -13.441283    35758.399 
   42400    296.86012   -1295.5765    442.40038     494.5016   -55.462052    35758.399 
   42500     302.7237    -1333.404    415.16317    456.05625   -181.65813    35758.399 
   42600    309.85977   -1333.3709    411.28182    484.60415   -41.650514    35758.399 
   42700    308.09234   -1362.7861    407.27883    443.16224    93.940451    35758.399 
   42800    302.99793   -1322.7007    399.00352    451.84482    231.96954    35758.399 
   42900    304.47447    -1345.027    381.65978    418.87793   -37.527799    35758.399 
   43000    301.58511   -1361.6953    403.19038    410.62318   -313.71143    35758.399 
   43100    304.43807   -1373.8822    403.38745    411.58524   -285.40478    35758.399 
   43200    306.28634   -1411.1574    410.32237    389.63566    473.37447    35758.399 
   43300    289.14117   -1399.7954    418.13173    330.97179    702.61859    35758.399 
   43400    286.71204   -1415.8013    421.62107    307.42756    544.06353    35758.399 
   43500    305.46139   -1451.1051    431.46488    367.08538    619.02333    35758.399 
   43600    290.13005   -1393.8801    422.86441    346.10908    797.81459    35758.399 
   43700    299.47663   -1368.5456    420.57303     411.5835    388.87742    35758.399 
   43800    297.79346   -1365.0117    403.69857    390.60178    800.24194    35758.399 
   43900    301.79525   -1362.8741     414.4749    421.68291    439.76872    35758.399 
   44000    290.52668   -1321.6406    432.14587    429.43067     602.5811    35758.399 
   44100    304.32053   -1356.3873    422.18692     447.3459    516.66733    35758.399 
   44200    295.22553   -1309.5066    426.27577    457.02629    159.53061    35758.399 
   44300    304.82219   -1332.7838     431.0217    482.06165    319.43773    35758.399 
   44400    302.86807   -1369.4136    436.12377    441.66265    18.505432    35758.399 
   44500    295.26459   -1354.2426    422.58221    408.77403    287.80397    35758.399 
   44600    301.79634   -1352.8911    437.32505    454.52105   -203.62529    35758.399 
   44700    295.47256   -1366.5368    400.41158    375.25339    376.47429    35758.399 
   44800    305.43361    -1345.227    423.60382    464.97626    525.16986    35758.399 
   44900    308.04481   -1321.7394    426.86747    503.58187    660.43381    35758.399 
   45000    296.15249   -1325.5922    417.36599    436.23903    408.61237    35758.399 
   45100    295.72732   -1410.4832    418.96273    351.01461    367.38145    35758.399 
   45200    298.60815   -1386.7889    404.50805    373.33255   -149.39685    35758.399 
   45300    305.54183   -1313.0506    405.08953    479.12969    16.463137    35758.399 
   45400    298.75955   -1349.9272    412.78603    419.15957    210.41417    35758.399 
   45500    297.90463   -1380.2564    401.53355    373.69672   -404.22308    35758.399 
   45600    289.37718   -1362.1657    438.81543    390.35661    681.66001    35758.399 
   45700    293.52469   -1367.4754    451.87813     416.9384   0.94926941    35758.399 
   45800     304.3136   -1352.9574    398.71957    427.27706     478.6528    35758.399 
   45900    294.19153   -1368.8704    438.21741    404.90995   -65.065215    35758.399 
   46000    307.85039   -1333.0877    429.58469    494.06807    48.229165    35758.399 
   46100    295.54059   -1319.0399    451.53704     474.1845    243.08768    35758.399 
   46200    311.69789   -1372.2035    433.11457    475.94889   -185.88501    35758.399 
   46300    306.27251   -1328.3268    415.79512    477.87623   -422.19541    35758.399 
   46400    310.44416   -1309.6355    426.25799    525.96871    34.201504    35758.399 
   46500    303.99622    -1384.493    413.68187    409.26293    32.204133    35758.399 
   46600    295.41264   -1350.0087    419.73909    410.83693    111.37408    35758.399 
   46700    296.32876   -1344.4535    431.09055    431.90255    518.87541    35758.399 
   46800    297.62485   -1345.8193    417.10971    422.43988    184.28014    35758.399 
   46900    296.23564   -1386.3977    424.21397    382.65905   -114.65465    35758.399 
   47000      303.088   -1291.5364    447.92574     532.3403   -57.954407    35758.399 
   47100    299.57104   -1332.5124    433.53576    461.00811    115.88984    35758.399 
   47200    299.98093   -1344.2623    433.35259    450.93582    529.61105    35758.399 
   47300    295.10545   -1379.0482    426.03849    386.70225   -121.20615    35758.399 
   47400    293.56445   -1342.7028    431.80944    421.82279   -232.21952    35758.399 
   47500    303.86689   -1364.8837     435.5745    450.17774   -422.78889    35758.399 
   47600    313.41337   -1355.0491    416.25494    484.03165     289.5313    35758.399 
   47700    295.23675   -1354.5251    430.11337    415.89631    113.35365    35758.399 
   47800    302.73752   -1384.6236    406.95229    396.68857   -72.965999    35758.399 
   47900    292.99954   -1354.1286    431.63129    407.65429   -54.269693    35758.399 
   48000    298.38724   -1338.5032    437.53802    453.64541    438.65265    35758.399 
   48100    297.47865   -1348.8408     437.2495    438.89448    492.68708    35758.399 
   48200    306.70101   -1372.5151       436.22    456.05812    474.91678    35758.399 
   48300    300.47292   -1330.1451    436.13813    470.07213    -269.2211    35758.399 
   48400    292.12347   -1332.6173    434.04877     427.6059   -71.468309    35758.399 
   48500    305.98182    -1363.685    432.12044    457.52369    -6.918575    35758.399 
   48600    297.79988   -1327.9353    428.12891    452.13769    -21.18626    35758.399 
   48700    291.72668   -1374.4511    419.49506    369.41708    148.23785    35758.399 
   48800    292.05655    -1386.463    451.12425    390.53185   -309.85021    35758.399 
   48900    295.88467   -1370.4102    428.08624    400.92547    32.673913    35758.399 
   49000    300.19071   -1356.3526    429.47891    435.92419      113.309    35758.399 
   49100    302.43175   -1342.4739    438.44902    468.94681    637.99977    35758.399 
   49200    306.49363   -1374.6978    407.79185    424.50582    247.30817    35758.399 
   49300    294.58954   -1353.1819    424.10814    408.29607    -126.2092    35758.399 
   49400    299.06871   -1355.9664    442.53285    444.27066    17.174041    35758.399 
   49500    306.98235   -1374.3795    449.56795     468.8188   -677.80558    35758.399 
   49600    299.47169   -1351.0317    438.83283    447.33481    -217.6006    35758.399 
   49700     300.2598   -1358.3648    429.80613    434.55291    -416.6255    35758.399 
   49800    295.15254   -1360.0456    416.76903    396.64923    73.001369    35758.399 
   49900    296.05097   -1342.1411    421.19844    423.06179    477.39563    35758.399 
   50000    299.55512    -1352.241    428.19995    435.87146    184.24399    35758.399 
   50100     300.9554   -1343.3105    417.31767    440.27658    117.74569    35758.399 
   50200    297.91701   -1397.4535    463.25946    418.28179   -315.81525    35758.399 
   50300    305.64197    -1357.472    445.58774    475.66115    697.74384    35758.399 
   50400    293.25629   -1355.0201    466.92157     443.2187   -260.67452    35758.399 
   50500    310.45064   -1317.1367     452.4545    544.69349   -139.21846    35758.399 
   50600    296.02854   -1357.5044    442.89631    429.29451    345.80899    35758.399 
   50700     287.8353   -1394.1992    462.98407    375.49202    204.43041    35758.399 
   50800    299.75903   -1385.3347    453.89525    429.39875    658.72809    35758.399 
   50900    311.92568   -1396.5338    451.92061    471.45884     599.6276    35758.399 
   51000    296.28968   -1366.9061     479.6463    457.82828    408.91224    35758.399 
   51100    301.91025   -1373.4986    444.12503    441.23065    575.91816    35758.399 
   51200    298.63973   -1386.1707    444.98245    414.56859    592.54955    35758.399 
   51300    300.26649   -1360.1483    434.34549    437.33909    51.043754    35758.399 
   51400    301.15909   -1402.8457    431.35124    395.69962   -31.296635    35758.399 
   51500    289.61115    -1351.097    434.82243    398.49453   -171.49667    35758.399 
   51600    295.60799   -1378.2119    439.22296    403.00444   -639.55554    35758.399 
   51700    297.91812   -1380.6065    424.95315    396.82749   -1039.1153    35758.399 
   51800    303.85564   -1434.2148     424.6186    369.83964    -623.5002    35758.399 
   51900    301.27985   -1425.4418    436.31644    378.61697   -939.04886    35758.399 
   52000    294.71932   -1378.6936    439.59435    398.85981   -322.87836    35758.399 
   52100    304.12809   -1398.0819    454.35941    436.95024   -684.23731    35758.399 
   52200    305.61566   -1390.7556    435.69589    432.36628   -853.17144    35758.399 
   52300    299.65009    -1383.056    439.93598    417.22357   -893.91655    35758.399 
   52400    303.44649   -1339.9055    434.41053    472.08346    -725.0896    35758.399 
   52500    294.63429   -1419.2336    436.55494    354.89433    -231.1405    35758.399 
   52600    308.57217   -1379.1272     441.6144    463.33496   -406.71894    35758.399 
   52700    296.43494   -1391.5179    460.20396    414.43367      252.184    35758.399 
   52800    297.02311   -1379.2488     443.1054    412.27425   -247.18395    35758.399 
   52900    309.60999   -1358.3378    440.82254    488.04401   -20.540487    35758.399 
   53000    305.56449   -1373.5682    432.49318    446.11858     60.60569    35758.399 
   53100    297.96785   -1344.6205    411.49848    419.58461   -136.63415    35758.399 
   53200    300.26984   -1381.5732    451.03619     432.6201   -27.847018    35758.399 
   53300    300.86902   -1335.2081    446.72054    477.38967      446.928    35758.399 
   53400     305.9019   -1357.7222    429.87684    460.88003    258.16222    35758.399 
   53500    307.66895   -1359.0282    467.13592    504.85508    265.57243    35758.399 
   53600     297.1726   -1350.5035    476.34063     474.9335   -28.446041    35758.399 
   53700    297.83131    -1382.836    451.23049    420.48125    83.718659    35758.399 
   53800    306.27205   -1421.0507    430.29324    399.64827    408.66766    35758.399 
   53900    290.62259   -1380.9819    459.73876    398.11771    890.20296    35758.399 
   54000    300.40268   -1354.9972    446.32661    455.08955    485.52036    35758.399 
   54100     299.3678   -1346.5781     430.4555    442.93947    317.99778    35758.399 
   54200    301.51903   -1409.9771    422.99696    381.84802    322.64779    35758.399 
   54300    300.18116   -1369.2852    448.69468      442.164    74.898278    35758.399 
   54400    306.78805   -1360.6671    441.81665    473.89786    236.75196    35758.399 
   54500     297.1683    -1352.632    457.70884    454.15371   -77.929264    35758.399 
   54600    306.08004   -1355.8333    458.28314      491.984    365.81941    35758.399 
   54700    307.39277   -1370.7098    439.12636    463.91014    461.66732    35758.399 
   54800    300.46537   -1336.8099    448.54152    475.77643   -172.98497    35758.399 
   54900    300.28731   -1344.6159    440.00835     458.6289   -96.809999    35758.399 
   55000    292.16275   -1388.0118    418.19037    356.53138   -347.98887    35758.399 
   55100     308.8243   -1357.2074    442.39564    487.18071   -421.52488    35758.399 
   55200     296.4836   -1343.9915    435.21279    437.18978   -414.62663    35758.399 
   55300    288.88019   -1342.3744    454.96424    424.04056   -478.90175    35758.399 
   55400    299.94447   -1355.2556    435.37168    441.79612   -58.775978    35758.399 
   55500    286.44428   -1339.1074    453.00278     414.2876   -330.89472    35758.399 
   55600    291.36557   -1342.3945    453.65054    433.98978   -72.553647    35758.399 
   55700    311.70576   -1333.8068    447.99593    529.26278   -32.575559    35758.399 
   55800    294.00221   -1357.4322    431.14613    408.41746   -691.89006    35758.399 
   55900    303.12556    -1393.007    434.02461    417.13902   -235.12162    35758.399 
   56000     307.3449   -1398.1214     444.5165     441.6714   -179.31963    35758.399 
   56100     298.9646   -1398.1411    445.69706    404.78763   -106.30079    35758.399 
   56200     303.6272   -1391.2475    472.22375    459.37508     712.3221    35758.399 
   56300    304.94303   -1393.9836    457.03722    447.42593    363.34281    35758.399 
   56400    289.15179   -1359.8503    453.69911    406.53249   -201.49779    35758.399 
   56500    294.38158   -1352.2419    446.84778    431.03157    229.85616    35758.399 
   56600     300.1538   -1382.5488    445.70493     425.7864   -51.054588    35758.399 
   56700    309.89309   -1386.4369    460.23439    480.64201    536.17826    35758.399 
   56800    301.48184    -1368.666      445.367    445.36033   -72.616858    35758.399 
   56900    291.47272   -1385.7562    475.08282    412.54681    239.27719    35758.399 
   57000    308.71883   -1386.3115    451.92344    467.12564    230.91141    35758.399 
   57100     305.5044   -1370.9134    433.56798    449.57541   -166.18962    35758.399 
   57200    295.53857   -1380.3429    427.72355     389.0589   -14.691344    35758.399 
   57300    302.68674   -1353.1213    450.11479    471.12281    358.47283    35758.399 
   57400    299.12765   -1375.1645     438.7234     421.5307    508.83126    35758.399 
   57500    298.68032   -1384.9989    450.54276    421.48496    586.10748    35758.399 
   57600     302.5733   -1385.5197    439.44033    427.53492    365.87762    35758.399 
   57700    306.38887   -1328.8627    448.10664    510.18013    442.93706    35758.399 
   57800    294.79963   -1386.0978    456.71073    408.93656   -137.41214    35758.399 
   57900      302.152   -1351.8131    437.67055    457.55917    581.54512    35758.399 
   58000    293.43576    -1381.143    462.51995    413.50886   -164.56203    35758.399 
   58100    303.28108   -1372.5621    434.29958     438.5649    117.00883    35758.399 
   58200    297.45462   -1379.1877     429.8249    401.01387   -511.81911    35758.399 
   58300    315.35701   -1410.6215    456.80594    477.83385   -245.57654    35758.399 
   58400    309.25887   -1377.7955    441.32757    467.49734    85.317668    35758.399 
   58500    302.88646   -1340.1314    435.83448    470.73909    777.41425    35758.399 
   58600    305.49378   -1380.7147    468.93372    475.09168    -85.28258    35758.399 
   58700    309.09907   -1388.2513    433.71833    448.70685   -208.52894    35758.399 
   58800    291.53769   -1403.5906    424.22991    344.15446   -67.378458    35758.399 
   58900    302.72009   -1356.4245    444.64315    462.49934    -167.1118    35758.399 
   59000    310.73322   -1376.5225    446.92559    481.06157    52.843276    35758.399 
   59100    298.97051    -1380.556    437.85188     414.5543    162.35052    35758.399 
   59200    297.08894   -1390.7258     449.9857    407.97646     531.6746    35758.399 
   59300    298.77747   -1384.9252    453.28354    424.74045    566.71422    35758.399 
   59400    300.72397   -1379.6129    475.40613    461.01195    782.42537    35758.399 
   59500    303.34624   -1378.8021    458.17986      456.501    200.34489    35758.399 
   59600    302.14386   -1358.8823    418.44196    431.22444    196.79455    35758.399 
   59700        310.9   -1346.1044    459.91364    525.22485   -442.76319    35758.399 
   59800    301.55681   -1329.4297    416.51325    456.08323   -614.56422    35758.399 
   59900     298.9502   -1385.8944    430.38879    401.66063   -279.70351    35758.399 
   60000    300.35283   -1400.0886    433.91945    397.36471   -527.39977    35758.399 
   60100    300.05882    -1361.098    451.96309    453.06419    75.263269    35758.399 
   60200    293.39126   -1393.6573     441.6243    379.89696   -111.43053    35758.399 
   60300    298.03479   -1392.9364    428.49966    388.57379    77.660741    35758.399 
   60400    299.92855   -1395.0509    429.60951    396.16632    337.16565    35758.399 
   60500    309.67703   -1390.3782    444.42966    459.91506    1030.5767    35758.399 
   60600    298.34003   -1415.7018    435.87647    374.57089     840.7133    35758.399 
   60700    304.86729   -1410.4617    426.30697    399.87379    334.01684    35758.399 
   60800    302.24303   -1371.1198    433.29639    434.29157     115.0492    35758.399 
   60900    306.42363   -1380.7395    443.69781     454.0522   -219.98236    35758.399 
   61000     293.9839   -1390.8896    426.85185    370.58266   -248.91108    35758.399 
   61100    298.69915   -1374.8657    448.68615      429.847    82.451353    35758.399 
   61200    292.68883   -1423.7163    445.98384    351.00859   -79.162323    35758.399 
   61300     305.6676   -1420.8135    449.58309     416.4313   -46.729391    35758.399 
   61400    308.12777    -1411.148    456.68953    444.37193    152.97903    35758.399 
   61500    299.79525   -1398.8616    449.82019     411.9612   -63.380529    35758.399 
   61600    306.74279   -1369.6046    457.18602    480.12431   -298.20111    35758.399 
   61700    303.73234   -1404.0073      425.845    400.71383   -775.27861    35758.399 
   61800     304.9248   -1444.8282    434.45127    373.91265   -222.09836    35758.399 
   61900    303.03903   -1422.7008    436.69092    389.71872    122.93384    35758.399 
   62000     293.1104   -1395.5731    418.52739    353.60922     60.26636    35758.399 
   62100    295.85875   -1438.7766    438.54279    342.89798    444.68178    35758.399 
   62200    302.90731   -1415.8287    452.98721    412.28918    226.48955    35758.399 
   62300    301.48046   -1449.0243    471.08044    390.70925    258.90785    35758.399 
   62400    300.05913   -1429.7088    444.66682    377.15857    27.321308    35758.399 
   62500     299.7262   -1432.1604    437.22501    365.75371   -316.47599    35758.399 
   62600    310.52698   -1413.5636    438.76413    434.92276   -381.98519    35758.399 
   62700    297.84881   -1438.8841    442.94951    356.23155     -40.6388    35758.399 
   62800    307.95218    -1445.253    446.17216    398.95232    307.55256    35758.399 
   62900    306.12639   -1433.8948     452.5953    408.44508   -108.32187    35758.399 
   63000    293.13662   -1409.0092    476.02274    397.78742   -352.12074    35758.399 
   63100     303.0946   -1407.7862    439.09245    407.28712   -138.97754    35758.399 
   63200    296.00769   -1443.9675    448.66325    348.50371   -109.76007    35758.399 
   63300    300.29158   -1417.6164     446.1892    391.82861     213.4654    35758.399 
   63400    310.91651   -1423.6822    437.29135    425.09974    400.80637    35758.399 
   63500    300.52474   -1414.8385    443.95521    393.43102    545.55187    35758.399 
   63600    299.27925   -1418.5987    442.60736    382.66871    -14.16694    35758.399 
   63700    288.80158   -1410.7122    466.65659     367.0382    345.24009    35758.399 
   63800    301.90923   -1402.3872    455.20636    423.41872    322.44062    35758.399 
   63900    307.58585   -1398.6999    439.25781    436.92809    590.47489    35758.399 
   64000    293.14874   -1421.3118    439.69406    349.21123    588.82781    35758.399 
   64100    301.52941   -1416.0547    429.56573    382.38637     752.9136    35758.399 
   64200      301.893    -1372.097    436.71774    435.14666    444.59941    35758.399 
   64300    301.91017   -1361.7698    445.78237    454.61646    1196.3859    35758.399 
   64400      310.504   -1390.7628    468.07452    486.92957    444.03616    35758.399 
   64500    294.53367   -1311.3643     434.5786    460.33051    73.578889    35758.399 
   64600    297.40829   -1398.3522    436.33544    388.14953   -160.95535    35758.399 
   64700    292.33704   -1370.8564    444.90703     401.1946   -917.75958    35758.399 
   64800    302.75487   -1359.8875    444.37562     458.9267   -34.280009    35758.399 
   64900    298.52392   -1337.0207    445.01473    463.22502    271.70136    35758.399 
   65000    297.30467   -1387.5739    435.45165    397.57364    254.79938    35758.399 
   65100    301.80287   -1399.5446    447.88355    418.45564    549.64032    35758.399 
   65200    305.37526   -1347.9373    435.60959    474.00684   -35.502011    35758.399 
   65300    303.10996   -1371.4336    417.98002     422.5971   -391.69085    35758.399 
   65400    294.58606   -1384.8711    418.57242    371.05536   -125.92846    35758.399 
   65500    313.04563   -1361.4941    467.24607    526.90831    254.60487    35758.399 
   65600    294.34153   -1411.5227    455.78039    380.50158    500.31554    35758.399 
   65700    285.66291   -1388.0322    446.55902    355.37175   -101.02348    35758.399 
   65800    306.33279   -1387.7087    430.19563    433.16843    159.27942    35758.399 
   65900    289.12012   -1394.8698    462.49033    380.16049   -161.71707    35758.399 
   66000    295.34439   -1400.1244    461.41619    402.08854    242.66884    35758.399 
   66100     305.8741   -1350.7604    442.91192    480.75073   -64.267627    35758.399 
   66200    302.69896   -1422.4282    463.35416    415.11068    20.327193    35758.399 
   66300    302.74892   -1380.3588    456.10786    450.16062    242.03228    35758.399 
   66400     293.2483   -1350.4181    476.22113    457.08399   -531.71905    35758.399 
   66500    294.27824   -1343.8862    439.95055    432.02099   -454.62855    35758.399 
   66600    304.04088   -1373.9784    431.62921     437.9276    -402.9577    35758.399 
   66700    294.03872   -1382.4198    437.51737    389.96678   -611.02327    35758.399 
   66800    302.29924    -1406.746    440.94433     406.5685   -208.07114    35758.399 
   66900     290.2181   -1378.3526    451.95289    391.12477   -122.92767    35758.399 
   67000    290.96979   -1389.9548    451.62593    382.60812   -386.16429    35758.399 
   67100    298.41961   -1381.9767    469.54021    442.32099   -633.87585    35758.399 
   67200    309.06416   -1379.6447    467.90448    491.34118   -173.30148    35758.399 
   67300    310.18745   -1374.4273    453.02779    486.78131    3.5126449    35758.399 
   67400    291.66752   -1346.7178    447.30984    424.69661    180.93454    35758.399 
   67500    294.84651   -1363.8006    453.12731    427.86313    57.979064    35758.399 
   67600    292.24566   -1400.8266      473.313    399.21553   -26.738182    35758.399 
   67700    305.51684   -1393.5274    447.85121    441.30118   -288.47445    35758.399 
   67800    296.33233   -1424.5636      438.494    359.21217   -198.91954    35758.399 
   67900    300.25723   -1422.0192    438.41541    379.49606    102.05244    35758.399 
   68000    306.14937   -1426.9376    461.16532    424.07663    189.79422    35758.399 
   68100    301.96615   -1325.9579     462.6392    507.53926   -142.92442    35758.399 
   68200    305.88761   -1340.8942    478.85261    526.61893   -43.349275    35758.399 
   68300    307.89379   -1339.8734    469.27661    527.17136     571.6298    35758.399 
   68400    300.83367   -1351.9174    440.41837    454.21776    37.366995    35758.399 
   68500     294.9898   -1376.6461    451.96792     414.5088    653.50048    35758.399 
   68600    291.33785   -1337.4974    436.90609     422.0166    739.02258    35758.399 
   68700    296.17524   -1370.5494    458.22684    432.24602    210.58962    35758.399 
   68800    290.74378    -1363.778    449.30234    405.43532   -2.7464939    35758.399 
   68900    308.27045   -1390.0846    447.96285    457.35637   -109.16165    35758.399 
   69000    304.72964   -1370.2232    476.24283    489.42322   -388.32932    35758.399 
   69100    296.64111   -1356.3889    481.91488    472.20944   -77.997646    35758.399 
   69200    302.49883   -1339.0366    461.48535    495.72501   -12.989504    35758.399 
   69300    300.63517   -1303.1656    463.51297    525.16305    1064.7883    35758.399 
   69400     298.1583   -1359.7465    464.81443    458.63914    588.13103    35758.399 
   69500    301.09977   -1378.0911    481.24742     470.0811    709.44095    35758.399 
   69600    279.67408   -1383.0264     470.2047    356.83531     56.06471    35758.399 
   69700    294.08706   -1380.8238    463.59841    417.86331    -67.11241    35758.399 
   69800    303.85102   -1387.0285    443.69411    436.08054    -110.8457    35758.399 
   69900    297.83616   -1384.8613    470.17332    437.42076    -278.2129    35758.399 
   70000    295.75168   -1407.3004    455.69462    391.03993    -180.0824    35758.399 
   70100    293.24178   -1419.2881    478.48023    390.44347    128.23948    35758.399 
   70200    295.63387   -1425.7225    474.12876    390.51713    -155.6285    35758.399 
   70300    297.45398    -1449.945    442.35188    342.78069    445.05528    35758.399 
   70400    305.67233   -1392.7154    464.97624    459.94409    517.92756    35758.399 
   70500    296.70258   -1440.2578    462.40198    369.10676    385.89521    35758.399 
   70600    296.48367   -1440.9695    448.91576    353.91499    -60.25515    35758.399 
   70700    306.12805   -1439.5021    479.50948    429.75951    567.70161    35758.399 
   70800    304.32147   -1403.1569     447.3263    425.72002    288.92392    35758.399 
   70900    303.86396   -1441.8012    454.17441    391.84678    23.747964    35758.399 
   71000    286.16356    -1468.356    478.51716    309.27894   -15.751838    35758.399 
   71100    295.87825   -1443.6204    469.45846    369.05834     176.1461    35758.399 
   71200    303.79861   -1435.8099    466.81556    410.18266    407.06756    35758.399 
   71300    300.85477   -1389.0617    467.82435    444.57524   -511.06219    35758.399 
   71400    292.37407   -1388.4104    479.69641     418.5981    208.94194    35758.399 
   71500    297.12389   -1400.1192    468.18551    416.94153    8.7179272    35758.399 
   71600    300.36133   -1478.1368    458.06219    343.49789    157.57769    35758.399 
   71700    301.66037   -1461.5906    456.03253    363.91173   -365.52463    35758.399 
   71800    294.27132   -1446.6549    489.23297    378.50322   -285.98075    35758.399 
   71900    295.83107   -1429.4582    457.19149    370.73937   -989.97087    35758.399 
   72000    296.89397   -1379.6577    474.15879    442.33248   -220.89296    35758.399 
   72100    298.61228   -1388.2605    447.71888     415.0906   -494.68408    35758.399 
   72200    287.66796   -1392.7849    475.69273    388.85529    -474.4507    35758.399 
   72300    305.12628   -1438.7361     467.4948    413.96295   -260.68252    35758.399 
   72400    299.68861   -1379.9027     468.5357    449.15147   -166.27766    35758.399 
   72500    290.98707   -1382.7437     466.3669    404.63867    205.02788    35758.399 
   72600    293.59277   -1394.1299    458.73541    397.45029    156.30629    35758.399 
   72700     291.2242   -1406.2869    465.79409     381.5992    218.34549    35758.399 
   72800    303.44074   -1398.7015    470.33146    449.18219    -106.3788    35758.399 
   72900    289.42472    -1414.749    476.31905    375.49274   -26.441593    35758.399 
   73000    309.21931   -1437.0889    454.50022    421.19706   -512.92073    35758.399 
   73100    306.69982   -1437.8222    468.16342    422.68902   -329.03324    35758.399 
   73200    296.68757   -1411.5752    475.39159    410.71086   -535.66098    35758.399 
   73300    293.22444   -1370.6399    467.07694    427.60963   -194.63809    35758.399 
   73400    293.90496   -1382.2024    478.93738    430.99701   -156.57461    35758.399 
   73500    306.98145   -1416.6493    495.86685    472.84386    581.01766    35758.399 
   73600    298.41765   -1411.0536     493.3885    437.08348    281.53097    35758.399 
   73700    297.86323   -1448.7555    474.14496    377.62114   -242.80208    35758.399 
   73800    298.75826   -1406.4249    473.64188    423.51181   -2.0037378    35758.399 
   73900    298.84843   -1417.6652    462.72164    401.76066    146.05496    35758.399 
   74000     303.4959   -1423.6654     448.0101     402.1474    18.916446    35758.399 
   74100    307.20889    -1471.061    458.93134    382.52916     150.7144    35758.399 
   74200    297.51216   -1447.6552    463.93979    366.92252    281.90719    35758.399 
   74300    292.77708   -1443.1072    458.47245    344.50693   -263.46613    35758.399 
   74400    303.23393   -1448.7324    490.42501      418.306    413.60126    35758.399 
   74500    306.71485   -1443.9558    487.80804    436.26828    297.05512    35758.399 
   74600    300.44921   -1422.4084    498.52515    440.08816   -18.458676    35758.399 
   74700    295.12549   -1403.6815     516.4571    452.57852    263.07115    35758.399 
   74800    302.91848   -1389.2097    494.38262    480.35432   0.52180338    35758.399 
   74900    316.78196   -1425.2441    493.79128    506.66561     98.42245    35758.399 
   75000    297.21421   -1459.6237    479.72782    369.38937    159.92343    35758.399 
   75100    296.93548   -1460.2177     475.5537    363.35591   -76.123831    35758.399 
   75200    301.54428   -1452.8285    469.28378    385.39804    10.638277    35758.399 
   75300    300.00348   -1450.1815    469.79126    381.55771    212.65006    35758.399 
   75400    304.92945    -1429.621    485.26311    439.95279    94.366593    35758.399 
   75500    288.79913        -1465    487.19507    333.27774   -380.62139    35758.399 
   75600    302.63221   -1431.0565    470.27367    413.09893   -812.42565    35758.399 
   75700    303.73567   -1429.4922    478.74427    428.14328   -12.543406    35758.399 
   75800    305.97058   -1373.3589    478.98704    494.66535   -499.27711    35758.399 
   75900     302.8195   -1403.1011     505.0226    476.65349   -861.76508    35758.399 
   76000    301.59354   -1411.0429    456.73888    414.86242   -23.172085    35758.399 
   76100    296.65967   -1413.8808    488.21009    421.09708    173.65276    35758.399 
   76200    297.93182   -1406.7845    486.95573    432.71423   -193.60316    35758.399 
   76300    298.97569   -1401.9486    481.01469    436.34805   -121.38138    35758.399 
   76400    297.91656   -1453.1839    448.33089    347.62076    18.562854    35758.399 
   76500    295.20207   -1410.5894    501.09202    430.65315    198.41218    35758.399 
   76600     301.8132   -1424.6064    481.89206    427.44927   -111.53819    35758.399 
   76700    305.89245   -1442.9644    491.62685    437.34499    115.73377    35758.399 
   76800    289.47859   -1449.5021    486.28978    350.95494    -198.8047    35758.399 
   76900    299.05883   -1405.1804    471.94048    424.41945   -749.64709    35758.399 
   77000    303.68485   -1383.4741    475.32172    470.50813   -475.09873    35758.399 
   77100    293.01166   -1353.5687    475.49912    452.13704   -1019.5328    35758.399 
   77200    301.88128   -1348.1166    483.79876    506.15489   -382.36196    35758.399 
   77300    306.72643   -1378.5954    489.97722    503.85037    53.357974    35758.399 
   77400    297.25911   -1384.2756    515.46488     480.6784   -638.51244    35758.399 
   77500    295.17567   -1388.6446    505.83209    457.21821     204.6466    35758.399 
   77600    290.09147   -1400.3829    480.14446    396.71116   -155.93182    35758.399 
   77700    288.38081   -1366.5946    472.64859    415.23762   -172.78535    35758.399 
   77800    299.97254   -1383.7926    495.44824    473.46311    -38.25035    35758.399 
   77900    305.16874   -1434.3583    456.69177    407.73048    487.39495    35758.399 
   78000    292.71038   -1430.1897    499.46645    398.11561   -285.38037    35758.399 
   78100    304.99759   -1380.4387    472.99646    477.17776    9.2675976    35758.399 
   78200    306.98097   -1404.1416    459.89271    449.37519   -284.82515    35758.399 
   78300    302.93141   -1417.0016    476.91465    435.15306  -0.92189057    35758.399 
   78400    312.74042    -1403.047    474.48134    491.20511    775.27642    35758.399 
   78500    293.86113   -1373.3968    500.50642    461.17266    1055.5787    35758.399 
   78600    300.48361   -1385.1276    498.99079    477.99079    648.64517    35758.399 
   78700    295.57102    -1383.863    471.01253    428.97506    167.90668    35758.399 
   78800     302.2369   -1354.0728    510.11284    528.12716    696.61688    35758.399 
   78900    294.72952   -1398.1988    499.81415    439.62069   -146.84339    35758.399 
   79000     292.2049   -1428.2323    483.94877    382.26058   -186.79804    35758.399 
   79100    300.92747   -1418.9593    509.74924    456.93261   -183.62008    35758.399 
   79200    296.68116   -1416.8091    474.37492    404.43119    194.94446    35758.399 
   79300    300.76773   -1408.9546    480.13682    436.59968    338.68053    35758.399 
   79400    295.63131   -1413.8948    469.95457    398.15902    495.97397    35758.399 
   79500    301.79311     -1384.69    490.16117    475.54357   -235.13246    35758.399 
   79600    299.88536   -1371.6642    508.26348    498.01097   -338.73856    35758.399 
   79700    303.91089   -1401.1612    468.06684    446.59229    84.160601    35758.399 
   79800    290.25572   -1374.3381    496.84145    440.19867    168.00025    35758.399 
   79900    293.57937   -1374.0992    491.09648    449.78117   -288.13101    35758.399 
   80000    307.23232   -1376.2804    460.30686     478.7917   -20.102248    35758.399 
   80100     302.4698    -1405.796    490.09353    457.44197   -137.26881    35758.399 
   80200    291.49774   -1373.2131     489.5188    439.63949   -45.071432    35758.399 
   80300    296.07495   -1419.8282    488.18195      412.467   -592.53749    35758.399 
   80400    303.56311   -1406.7243    471.22133    442.60485    167.19327    35758.399 
   80500    297.95389   -1415.0613    497.83964    435.42161   -167.56328    35758.399 
   80600    289.06106   -1393.9826    473.08571    391.37497    112.31588    35758.399 
   80700    313.73269   -1418.3952    469.35506    475.23529   -716.03991    35758.399 
   80800    307.16406   -1423.3188    458.44139    429.57788    221.72139    35758.399 
   80900    291.29666   -1432.1898    481.31875    371.54989    149.39085    35758.399 
   81000    306.02262   -1456.7982    479.83025     412.3055    87.315853    35758.399 
   81100    302.32641   -1459.6794    474.93785    387.75196    45.979896    35758.399 
   81200    296.81247   -1468.9216    476.88025    355.42016   -25.444408    35758.399 
   81300    288.45781   -1460.2154    463.27614    312.59391    73.808928    35758.399 
   81400     294.5389    -1470.989    475.07201    341.22295    226.90054    35758.399 
   81500     297.7806    -1489.957    457.50211    319.40161    132.22149    35758.399 
   81600    297.77791   -1450.7049    504.28021    405.41962    516.24634    35758.399 
   81700    303.51808   -1478.5032    472.42994     371.8301    789.34348    35758.399 
   81800    306.19954   -1426.5417    503.38741    466.92229     1154.532    35758.399 
   81900    290.60094   -1400.7274    504.03842    422.57352    1188.0883    35758.399 
   82000     302.0197   -1414.6275    493.03987    449.51351    1146.8812    35758.399 
   82100    314.41266   -1473.8197    512.64671    466.18939     1158.212    35758.399 
   82200    286.17633   -1434.8978    459.51185    323.78978    291.71496    35758.399 
   82300    299.49355   -1425.8049    494.46152    428.28956    394.18917    35758.399 
   82400    299.91123    -1408.528    499.59575    452.59686    257.76634    35758.399 
   82500    294.97294   -1420.3722    495.10238    413.84063   -348.56918    35758.399 
   82600    295.98665   -1397.9114    478.29249    424.09353   -208.66973    35758.399 
   82700    291.80996   -1422.8378    483.40811     385.3215   -496.19471    35758.399 
   82800    291.78298   -1437.8687    494.10527    380.86524   -265.85377    35758.399 
   82900    291.84874   -1396.8263    520.48526     448.5862   -232.82722    35758.399 
   83000    291.84417    -1412.638    502.84826    415.11669   -183.99328    35758.399 
   83100    302.74061   -1437.1664     483.4755    420.68295   -72.052039    35758.399 
   83200    307.13206   -1417.1097    496.15035    473.35066   -51.763159    35758.399 
   83300     293.0791    -1410.004    472.52274    393.03151   -483.56916    35758.399 
   83400    305.43125   -1439.3103    475.39733    422.67576    397.57276    35758.399 
   83500    296.03227   -1420.0088    493.22796    417.13866   -70.319653    35758.399 
   83600    294.12712   -1443.3762    440.40863    332.30301   -613.01365    35758.399 
   83700    302.25496    -1450.386    500.77537    422.55848   -348.37556    35758.399 
   83800    293.73901   -1455.1985    486.25921    364.56933    153.13042    35758.399 
   83900    290.82832   -1434.5343    484.32157    370.08202    83.854943    35758.399 
   84000    302.35581   -1432.9282    492.24823    431.94695    210.18294    35758.399 
   84100    303.40742   -1437.7503    479.66114    419.31188    432.32075    35758.399 
   84200    298.72407   -1425.7665    491.11537    421.48856    271.16447    35758.399 
   84300    290.78822   -1425.4845    516.02323    410.65142   -209.93368    35758.399 
   84400    305.85108   -1480.3787    464.21622    372.33221    126.65239    35758.399 
   84500    293.32165   -1450.0282    489.70325    371.28896   -838.80966    35758.399 
   84600    301.71925   -1421.6799    474.61688    422.67408   -355.32112    35758.399 
   84700    306.52662   -1430.1906    493.14083    454.51176   -1249.0553    35758.399 
   84800    284.52744   -1394.9076    495.27761    392.06024   -1054.2804    35758.399 
   84900    299.81013   -1427.5441    457.07346    390.59955   -441.17238    35758.399 
   85000    293.44811   -1438.8476    497.71602    391.05639    205.01853    35758.399 
   85100    302.10207   -1433.7431    493.02519    430.75717     488.0692    35758.399 
   85200    300.68335   -1430.2987    470.92395     405.6596    646.32587    35758.399 
   85300    308.86241   -1473.9174    460.70971    388.95774    387.92905    35758.399 
   85400    305.48222   -1408.7872    504.76033    482.79332    225.64213    35758.399 
   85500    292.42657   -1363.1475    505.39885    469.80185    314.78313    35758.399 
   85600    300.22899   -1436.4752     480.5513     407.0478    258.44801    35758.399 
   85700    301.02501   -1426.6662    511.14331    451.06255   -209.01914    35758.399 
   85800      306.088   -1423.0341    499.81614    466.35232    473.06724    35758.399 
   85900    301.99258   -1392.4379    493.49178    472.03179    392.50648    35758.399 
   86000    301.38451   -1404.6164    516.39134    479.99243    507.86958    35758.399 
   86100    302.45724   -1422.7896    511.51077    461.80857    326.05014    35758.399 
   86200    290.36089    -1410.277    488.53451    396.43027   -121.17648    35758.399 
   86300    293.90009   -1386.1289     494.5665    442.67756   -384.81361    35758.399 
   86400    300.28215    -1397.611    505.72606     471.3281   -558.97128    35758.399 
   86500    303.07432    -1426.549    476.80777    426.14762     111.9106    35758.399 
   86600    307.74056   -1450.3639    490.74316    437.45174   -272.52774    35758.399 
   86700     296.0019   -1433.8521    499.45255    409.38209    19.772786    35758.399 
   86800    300.77802   -1477.1572    493.18427    381.49118    -50.51396    35758.399 
   86900    291.84121   -1467.5176    497.48974    354.86521   -12.459755    35758.399 
   87000    294.89507   -1459.6333    521.73256    400.85611    286.13494    35758.399 
   87100    295.22085   -1492.1562    454.97634    303.05602    312.24334    35758.399 
   87200    297.57207   -1452.4555    506.54929    405.00372    583.29767    35758.399 
   87300     307.0707   -1467.8631    464.61809    390.78642    267.23056    35758.399 
   87400    302.50452   -1472.4655    486.68665    387.52326    111.79555    35758.399 
   87500    292.00299   -1472.8452    482.17062    334.95293   -97.338631    35758.399 
   87600    283.83038   -1435.2794    492.97615    346.22241     47.13699    35758.399 
   87700    296.43111    -1426.542    490.81269    410.00082   -99.960001    35758.399 
   87800    293.24217   -1450.3101    482.70637    363.64934   -171.16638    35758.399 
   87900    307.11213   -1463.6278    482.78762    413.37943    61.816999    35758.399 
   88000    298.37523   -1472.7167    481.93639    363.77578   -385.14779    35758.399 
   88100    299.50175   -1473.9953    469.88134    355.55624   -183.03705    35758.399 
   88200    290.85357   -1463.3599    487.18012    344.22959   -722.89319    35758.399 
   88300    303.44699    -1440.075    484.19491     421.7006   -352.13448    35758.399 
   88400    309.56818   -1406.9534    483.68733    482.10338   -310.65544    35758.399 
   88500    298.68805   -1427.0783    480.19629    409.09412   -130.22811    35758.399 
   88600    303.44499    -1439.494    498.26399    436.34155    251.77879    35758.399 
   88700    294.82249   -1437.6966    482.79744    383.52826    293.60708    35758.399 
   88800    301.10108   -1430.8436    496.38077    432.46797    869.57252    35758.399 
   88900    305.39234   -1457.8498    489.94065    418.50302     595.1215    35758.399 
   89000    297.46111     -1401.75    482.25643    430.91259   -80.489448    35758.399 
   89100    304.64376   -1455.4864    472.12253     399.6499   -8.1026414    35758.399 
   89200    298.22002   -1423.2651    466.73897    397.32529   -465.75407    35758.399 
   89300    299.52254   -1441.6504    473.85766    391.97184   -630.92818    35758.399 
   89400    301.96459   -1411.1536    521.13924    480.83653   -701.00328    35758.399 
   89500    298.59149   -1418.3983    483.77949    420.91896   -655.83037    35758.399 
   89600    303.55298   -1467.8826     504.9257    415.10492   -560.63078    35758.399 
   89700     292.2963   -1466.8062    497.18178     357.3347   -640.05978    35758.399 
   89800    302.00229   -1486.1002    473.62257    358.54438   -412.13825    35758.399 
   89900    302.15743   -1451.1483    488.22706    408.80509    212.58025    35758.399 
   90000    301.13708   -1487.3073    499.64751    379.43442    115.85253    35758.399 
   90100    295.68823   -1520.0049    504.28179    326.63454    576.99029    35758.399 
   90200    305.94722   -1460.0493    509.01383    437.89568    1166.9451    35758.399 
   90300     302.5708   -1508.7936    500.69028    365.49968    129.50223    35758.399 
   90400    295.89351   -1481.2413    483.90797    345.95623    190.41163    35758.399 
   90500    303.84016   -1521.2405     476.5831    334.70813    196.42374    35758.399 
   90600    287.78442   -1483.6964    496.77786    319.55756   -55.332958    35758.399 
   90700    302.60244   -1457.4462    486.52109    402.82146    604.37032    35758.399 
   90800    291.32506   -1498.4432    477.51295    301.61958   -231.77928    35758.399 
   90900    293.80969   -1496.5461    466.36568    303.64907   -295.28138    35758.399 
   91000    310.23716    -1502.228    476.81327    382.99179   -101.04883    35758.399 
   91100    291.37225   -1486.9869      509.835    345.61217   -348.46824    35758.399 
[...]
  984800    301.17933   -1524.8675    524.19555    366.61405    318.87303    35758.399 
  984900    297.88165   -1530.4974    502.63014      324.448   -228.42049    35758.399 
  985000    306.92429   -1603.5972    524.14287    313.91253   -40.977192    35758.399 
  985100    307.05368   -1514.2255    521.50412     401.2329   -265.56337    35758.399 
  985200    290.79051   -1512.4338     547.1359    354.82525   -516.53397    35758.399 
  985300    301.55243   -1530.0754    512.03366    350.93803    -371.0742    35758.399 
  985400    301.99556   -1555.8912    518.51934    333.61969   -104.95522    35758.399 
  985500    302.47057   -1521.1071    527.42344    379.46426    -163.6837    35758.399 
  985600    308.49669   -1516.3369    536.29422    420.46249    -55.67801    35758.399 
  985700    305.95317   -1508.9083    518.18392    398.23377    534.57574    35758.399 
  985800    308.35465   -1509.1017    526.79219    417.55077     525.3119    35758.399 
  985900    290.78136   -1535.9031    506.53226    290.71067    390.52881    35758.399 
  986000    303.33856   -1531.4593    521.71285    367.34198    730.62072    35758.399 
  986100    297.60766   -1569.7189    497.75929    279.11182    330.29074    35758.399 
  986200    305.60824   -1538.4879    508.00797    356.91235    383.93656    35758.399 
  986300     295.4791   -1528.6135    503.29092    316.08563   -183.32643    35758.399 
  986400    295.99154   -1539.3556      525.177    329.55605    -374.5879    35758.399 
  986500    293.05633   -1565.8791    542.97383    307.50415   -723.10433    35758.399 
  986600    300.96297   -1537.3506    506.29065    335.24383   -340.30384    35758.399 
  986700    307.64759   -1551.5097    530.86391    376.00468    -332.5671    35758.399 
  986800    290.93248   -1545.2683    496.22804    271.72732   -274.57283    35758.399 
  986900    290.93116   -1532.0067    534.93606    323.69098   -602.09818    35758.399 
  987000    300.14984   -1527.5383    536.79942    371.87347   -23.942298    35758.399 
  987100    309.18576   -1517.2628    514.26323    400.63384    96.273813    35758.399 
  987200    310.34866   -1529.5669    529.33304    408.67885    456.34796    35758.399 
  987300    298.14228   -1551.7688    529.96565    331.69533    426.87865    35758.399 
  987400    300.57525    -1518.338    521.42454    367.63016    136.72252    35758.399 
  987500      301.975   -1546.5516    529.33735    353.68388   -127.67152    35758.399 
  987600    300.38982   -1573.8518    520.00175    309.85176   -164.53657    35758.399 
  987700    300.66516   -1537.0533    516.33045    344.22895   -158.32267    35758.399 
  987800     305.4501   -1555.5987    555.30502    386.38071    84.352622    35758.399 
  987900    305.83144   -1558.7761    527.76412    357.39353   -387.32423    35758.399 
  988000    294.68444   -1526.0977    540.04697    351.74999   -272.71881    35758.399 
  988100    292.79474   -1544.6433    581.35944    365.93805    74.389864    35758.399 
  988200    289.48463   -1542.0721    506.39947    278.52207    150.67063    35758.399 
  988300    301.29053   -1561.4178    521.31919    327.69217    100.50102    35758.399 
  988400    293.38623   -1524.3199    517.39008    324.97732    -453.2865    35758.399 
  988500    303.56789   -1495.2682    510.94602    393.80736   -805.81179    35758.399 
  988600    310.12643   -1524.3923    490.64736     374.1589   -855.07256    35758.399 
  988700    295.03971   -1501.6864    545.24199    382.96912   -81.355843    35758.399 
  988800    307.33647   -1495.5563    557.89583    457.57754    81.865675    35758.399 
  988900     302.4309   -1490.9021    525.26171     407.3275    -83.71132    35758.399 
  989000    303.44061    -1494.535    537.29046    420.30718    375.34098    35758.399 
  989100    298.96176   -1513.0028    544.83644    389.05236    506.61281    35758.399 
  989200    298.03104   -1556.4556    523.87708    320.41498    81.944796    35758.399 
  989300    286.69867   -1563.7553    540.60138    278.39314    4.6697079    35758.399 
  989400    301.51037   -1554.2984    539.76689    354.25737    191.29363    35758.399 
  989500    306.46126   -1557.2735    510.94681    344.93811     791.2258    35758.399 
  989600    297.39596   -1580.1837    542.32419    312.25086   -175.43182    35758.399 
  989700    296.02572   -1498.7295    550.34468    395.50493   -66.525569    35758.399 
  989800    302.67044   -1471.8388     523.5068    425.72333     299.9555    35758.399 
  989900    309.50173   -1499.6458    498.64919    404.07117   -177.84899    35758.399 
  990000    302.90444   -1507.0416    534.66173    402.73772   -55.122449    35758.399 
  990100    302.99626   -1528.2505    497.13446    344.41842    574.91139    35758.399 
  990200    288.62673   -1498.3318    524.59378    336.56197   -281.21351    35758.399 
  990300     317.3355   -1486.5329    526.59621    480.69465   -48.533041    35758.399 
  990400    309.11241   -1503.3089    503.05883    403.05039    136.34269    35758.399 
  990500    297.11151   -1472.3853    543.50868    419.94235    290.66814    35758.399 
  990600    296.83333   -1525.0937    516.12565     338.5881    -523.1603    35758.399 
  990700    295.80088   -1513.4055    535.25702    364.72052    71.300032    35758.399 
  990800    302.93593   -1478.5242    482.65756    379.39393   -79.347174    35758.399 
  990900    294.29862   -1472.5752    521.59146     385.0654   -226.68599    35758.399 
  991000     301.7151   -1482.0049    535.61976     423.3332    21.161417    35758.399 
  991100    304.19739   -1451.4041     552.8508    482.43397   -105.32659    35758.399 
  991200    306.36056   -1450.9841     520.9479    460.77138   -274.59967    35758.399 
  991300    286.05966   -1480.1291    569.27479    387.79182   -255.28169    35758.399 
  991400     300.1565   -1476.9037    538.94135    424.68024    125.80403    35758.399 
  991500    301.27767   -1472.5435    525.95949    421.14843     167.0829    35758.399 
  991600    305.51469   -1489.7654    525.34533    422.54748    431.04123    35758.399 
  991700    299.12632   -1536.8827    521.02268    342.10579    597.80808    35758.399 
  991800    300.50638     -1528.36    499.91314    335.78411    230.47547    35758.399 
  991900     301.8829   -1548.2293    495.21543     317.4662   -367.92829    35758.399 
  992000    311.31399   -1524.7426    511.35121     399.9037   -388.62945    35758.399 
  992100    305.74406   -1552.0912      507.087    343.00464   -407.41565    35758.399 
  992200    298.32336   -1502.9786    504.64313    355.98511   -415.39745    35758.399 
  992300    296.57811    -1536.464    518.90537    328.83886    223.46194    35758.399 
  992400    300.26916   -1511.8375    534.53331    385.84977    278.60695    35758.399 
  992500    304.70977   -1507.9134    506.11052     381.5105    808.55211    35758.399 
  992600    304.52557   -1509.6316    503.53507    376.38071    710.78868    35758.399 
  992700    305.89121   -1531.3602    546.69922    404.01585    152.77713    35758.399 
  992800     308.4144   -1527.2447    505.48239    378.36929    140.35053    35758.399 
  992900    294.75561   -1505.2484    510.77795    343.65332   -298.01953    35758.399 
  993000    302.29509   -1469.3029    536.04493    439.09332   -118.29805    35758.399 
  993100    295.50191   -1503.1959    520.53832    358.85419   -646.40345    35758.399 
  993200    302.71757   -1466.4543    517.68795    425.50287   -162.05675    35758.399 
  993300    306.76172   -1423.3599    553.24599    522.51487   -142.57195    35758.399 
  993400    306.29598   -1444.5158     534.9765    480.97511    532.93991    35758.399 
  993500    307.93997   -1486.3755    519.47004    431.07235    137.47097    35758.399 
  993600    304.91527   -1458.5591    507.82671    433.51392     548.3849    35758.399 
  993700    306.57715   -1473.3859     507.6343    426.03928   -2.5858425    35758.399 
  993800    292.28638   -1497.8939    508.74295    337.76305   -38.595937    35758.399 
  993900    299.51722   -1526.3028    517.67903    351.11662    119.70115    35758.399 
  994000    298.49845   -1514.9735     516.4515    356.59341   -350.36578    35758.399 
  994100    302.88561    -1489.832    521.92929    407.12944    333.14611    35758.399 
  994200    301.98915   -1525.4211    533.65616    379.19744    274.02876    35758.399 
  994300    290.37902    -1517.636    531.77984    332.39889    88.709848    35758.399 
  994400    290.61288    -1521.684    524.53062     322.1633    70.331803    35758.399 
  994500    293.50847   -1537.9828     498.3067     292.7859   -235.11213    35758.399 
  994600    304.50604   -1520.7477    503.36238    365.00318    174.08896    35758.399 
  994700     298.1341   -1503.6082    506.31376    356.16692   -147.44444    35758.399 
  994800    298.45769    -1471.547     510.0704    393.45375   -20.060046    35758.399 
  994900    297.62818   -1478.5815    533.60327    406.18631    83.305735    35758.399 
  995000    291.01791    -1489.089    522.72006    354.78655    199.95795    35758.399 
  995100    303.08863   -1464.6054    511.90542    423.25379   -277.34857    35758.399 
  995200    298.99426   -1477.0578    516.08169    396.39016   -326.79677    35758.399 
  995300    293.09198   -1508.2676     492.2034    314.50701   -213.14781    35758.399 
  995400    296.44825   -1472.7303    500.27936    373.35706    203.79057    35758.399 
  995500    312.11433   -1472.8242    536.62062    480.72488    565.93201    35758.399 
  995600    304.26106   -1508.4686    535.82772    408.63549     734.7294    35758.399 
  995700    295.37209   -1500.1254    519.32838    360.12542     442.0601    35758.399 
  995800    296.64255   -1508.7798     490.3766    328.28686    329.57242    35758.399 
  995900    301.08292   -1505.3777    530.24618    391.71675   -34.850497    35758.399 
  996000    299.39683   -1521.6222    497.42741    334.99905   -621.85322    35758.399 
  996100    294.01096   -1533.3729    512.86386    314.23418    149.88267    35758.399 
  996200    308.31805   -1533.2469    504.17919    370.62643    15.190189    35758.399 
  996300    303.39362   -1541.0622    522.51303    358.78919    34.319508    35758.399 
  996400    302.12021    -1520.004    522.09955    373.65298   -99.204296    35758.399 
  996500    298.20673    -1516.095    507.93916    345.63522   -140.48887    35758.399 
  996600    296.99171   -1509.2319    507.35016    346.39339    634.21567    35758.399 
  996700    296.89978    -1543.645    525.41397    329.62682     62.20873    35758.399 
  996800    305.07396   -1499.8578     521.9143     407.0232    89.291811    35758.399 
  996900    296.69289   -1536.2569    492.15873    302.82038   -18.924644    35758.399 
  997000    300.75565   -1493.5835    523.54949    395.32855   -629.56161    35758.399 
  997100    297.92483   -1475.5168    486.27534    363.26983   -470.59368    35758.399 
  997200     297.7524   -1491.6531    498.04231    358.11772   -759.56155    35758.399 
  997300    295.66361   -1517.8599    503.22662    327.61264   -1077.7115    35758.399 
  997400    291.51249    -1468.427    541.00961    395.98333   -701.71959    35758.399 
  997500    296.09662   -1422.1131    508.31389    430.41244   -944.62618    35758.399 
  997600    302.58768   -1442.3508    511.42691    442.75571   -471.71641    35758.399 
  997700    298.92879   -1519.0759    492.82482    330.81801   -360.08701    35758.399 
  997800    301.43996   -1466.7861    513.47174    415.15484   -473.68164    35758.399 
  997900    303.31011   -1483.8168    510.56755    403.71003   -372.25072    35758.399 
  998000    297.32395   -1475.8897    512.27057    386.16427   -19.679756    35758.399 
  998100    300.50737   -1473.3358    492.40456    383.30425    418.80427    35758.399 
  998200    304.08383   -1516.4184    486.82803    350.88139   -123.57866    35758.399 
  998300    304.47339   -1515.1292    528.25239    395.36346   -140.97683    35758.399 
  998400    293.20294   -1515.8738    491.10033    306.30159    41.567996    35758.399 
  998500    291.64931   -1520.7127     507.2694     310.5786    -109.6963    35758.399 
  998600    294.60418   -1514.4112    513.11205     336.1372   -220.30796    35758.399 
  998700    307.29048   -1513.2934    505.85429    387.59015   -184.80921    35758.399 
  998800      299.358   -1566.3248    492.18112    284.87394     373.3946    35758.399 
  998900    291.21741   -1556.0904    494.50624    260.47703   -156.75394    35758.399 
  999000    304.87532   -1490.0333    489.51894    383.55058    148.93676    35758.399 
  999100    311.01953   -1518.9674    495.73631    388.72717    77.184912    35758.399 
  999200    297.11614   -1544.0799     511.0534    315.81353   -489.05219    35758.399 
  999300    294.21566   -1517.2512    479.80139    298.22271   -258.65715    35758.399 
  999400    310.80653   -1524.1621    512.55919    399.38838    28.067371    35758.399 
  999500    292.44524   -1489.4389    501.05603    339.25237   -380.78422    35758.399 
  999600    290.50833   -1477.9051    489.33759    330.27453    507.10618    35758.399 
  999700    298.90357   -1511.3605    497.27679    342.87088    378.68604    35758.399 
  999800    304.77424   -1493.4564    509.31211    399.46181    238.81384    35758.399 
  999900    291.40545    -1465.945    470.77858    327.74841    85.978876    35758.399 
 1000000    295.68849   -1473.9457    510.58739     379.0005     -535.538    35758.399 
 1000100    283.13062   -1468.4453    483.83331    300.73694   -375.08867    35758.399 
 1000200      292.428   -1484.9804    509.47194    352.04844    45.770509    35758.399 
 1000300     303.4506   -1457.8374    517.57087    437.33049   -237.21071    35758.399 
 1000400    292.64953   -1456.8252    519.32917    391.06664    -63.81065    35758.399 
 1000500    305.56368   -1431.4849    514.66599    470.37105   -296.25037    35758.399 
 1000600    295.83872   -1443.1395    486.68877     386.5901    223.95952    35758.399 
 1000700    306.45407   -1444.6625     534.1395    480.70917   -578.74618    35758.399 
 1000800    296.17949   -1449.3973    509.32809    404.51865   -555.91216    35758.399 
 1000900    291.07242   -1469.2798    542.45814    394.58124   -286.54308    35758.399 
 1001000    299.76965    -1454.516    492.74808    399.11851   -343.95127    35758.399 
 1001100    298.01221   -1448.1577    492.37002    397.12035    -208.6128    35758.399 
 1001200    297.03115   -1437.7623    518.27085    428.96277    43.900152    35758.399 
 1001300    300.58864   -1456.8169    536.23161    444.01905    407.62693    35758.399 
 1001400    291.37892   -1515.1308     489.2109    296.87448    133.47384    35758.399 
 1001500    302.24467   -1476.7108    513.86357    409.27516   -517.59455    35758.399 
 1001600    309.27349   -1472.7851    528.51699    459.76356    11.050799    35758.399 
 1001700    299.70574   -1520.2181    487.85625    328.23437    344.52249    35758.399 
 1001800    304.13112   -1481.2708    524.06395    423.47958    204.58524    35758.399 
 1001900    306.63097   -1512.7947    515.33878    394.57927    206.22188    35758.399 
 1002000    299.20981   -1487.4018    499.45077    370.39376    282.21457    35758.399 
 1002100    302.47236   -1487.9984    528.42464    413.58234    196.70301    35758.399 
 1002200    290.96184   -1512.9709    467.97029     275.9003      312.787    35758.399 
 1002300    303.48353    -1473.636    515.67257    419.78313   -345.17411    35758.399 
 1002400    299.53448   -1450.1783    522.85185    432.49236   -846.14519    35758.399 
 1002500    299.30281    -1526.555    497.82034    330.03233   -629.15044    35758.399 
 1002600    289.88474   -1478.9743    503.49463    340.53145   -1080.2064    35758.399 
 1002700    300.44894   -1443.8142    510.91148    431.06745   -990.61039    35758.399 
 1002800      288.955   -1513.8964    501.35144    299.24533   -574.40061    35758.399 
 1002900    300.23878   -1494.9132    495.35153    363.45448   -585.92086    35758.399 
 1003000    299.41743   -1488.7243    524.73915    395.30221   -655.38384    35758.399 
 1003100     299.8717   -1467.9486    508.80788    402.20892   -842.92563    35758.399 
 1003200    293.68282   -1520.7844    518.00054    330.46966   -356.60619    35758.399 
 1003300    308.23904   -1557.1407    490.23938    332.43418   -319.45599    35758.399 
 1003400     294.7819   -1497.9207     515.3734    355.69578     83.60703    35758.399 
 1003500    305.05416   -1492.3641    504.45909    396.97184   -65.344921    35758.399 
 1003600    301.18042   -1557.5031    491.15171    300.93958   0.14420642    35758.399 
 1003700    315.19053   -1608.5709    494.32285    316.64565    336.32287    35758.399 
 1003800    293.51813   -1552.0641    499.90295    280.34472    262.64845    35758.399 
 1003900    292.96604   -1530.2698    505.81092    305.54067   -519.15073    35758.399 
 1004000    300.29567   -1535.7683    477.25901    304.76507   -309.79789    35758.399 
 1004100    297.85279   -1497.6426    499.69311    354.23476   -249.60027    35758.399 
 1004200     305.6759   -1506.0294    490.21605    371.88602   -41.277002    35758.399 
 1004300    303.77844   -1494.4012    499.57239    384.25655   -179.31046    35758.399 
 1004400    293.95772   -1525.6754    513.22469    322.05078    473.61314    35758.399 
 1004500    297.26325   -1521.2896     518.8887    347.10697    431.21352    35758.399 
 1004600    312.11327   -1517.9167    489.97097    388.97787    307.65275    35758.399 
 1004700    293.57563   -1511.1167    482.82723    304.47747    120.53198    35758.399 
 1004800    300.90897   -1534.1266    509.36622    341.29822   -307.47276    35758.399 
 1004900    299.92796   -1530.6671     515.2184    346.15632    177.98291    35758.399 
 1005000     304.2761   -1554.5983    492.66401     319.4103    14.236591    35758.399 
 1005100    293.85958   -1518.6392    499.43438    314.85119   -818.08876    35758.399 
 1005200    309.09686   -1526.5862    504.60256    381.24619   -1144.7265    35758.399 
 1005300    302.92427   -1509.9213    492.35482    357.64115   -708.10763    35758.399 
 1005400     299.4151   -1501.2566    548.77105    406.79126   -355.06132    35758.399 
 1005500     300.2853   -1479.7167    494.82799    378.33861   -103.48739    35758.399 
 1005600    298.38364   -1470.4525    525.20513    409.34684    -68.89567    35758.399 
 1005700    304.15939   -1546.1249    498.17829    332.86819    416.85842    35758.399 
 1005800    302.41351   -1525.3416    507.60105     355.1483   -442.01202    35758.399 
 1005859    293.25283   -1528.6297    505.39568    308.06743    36.698782    35758.399 
Loop time of 598.491 on 32 procs for 1000000 steps with 1524 atoms

Performance: 144.363 ns/day, 0.166 hours/ns, 1670.868 timesteps/s
100.0% CPU use with 32 MPI tasks x no OpenMP threads

MPI task timing breakdown:
Section |  min time  |  avg time  |  max time  |%varavg| %total
---------------------------------------------------------------
Pair    | 251.66     | 284.76     | 323.25     | 111.7 | 47.58
Bond    | 1.4877     | 1.6505     | 1.8206     |   7.0 |  0.28
Neigh   | 38.804     | 38.881     | 38.951     |   0.8 |  6.50
Comm    | 221.61     | 260.1      | 293.14     | 116.6 | 43.46
Output  | 0.38616    | 0.40223    | 0.81974    |  11.8 |  0.07
Modify  | 9.2889     | 9.5645     | 9.7449     |   4.0 |  1.60
Other   |            | 3.138      |            |       |  0.52

Nlocal:        47.6250 ave          80 max          13 min
Histogram: 2 1 4 2 5 5 5 5 2 1
Nghost:        2058.69 ave        2183 max        1945 min
Histogram: 2 2 4 6 4 3 4 5 1 1
Neighs:        5685.66 ave        9974 max         897 min
Histogram: 2 4 1 2 5 7 1 4 3 3

Total # of neighbors = 181941
Ave neighs/atom = 119.38386
Ave special neighs/atom = 2.0538058
Neighbor list builds = 49778
Dangerous builds = 0
The system volume is 35758.3987070729
Lattice vectors
32.9452408980428 0 0
0 32.9452408980428 0
0 0 32.9452408980428
Total wall time: 0:10:03
