LAMMPS data file
 1504 atoms
 1003 bonds
 503 angles
 0 dihedrals
 1 impropers
 3 atom types
 2 bond types
 2 angle types
 0 dihedral types
 1 improper types
 0 15 xlo xhi
 0 15 ylo yhi
 0 15 zlo zhi
 0 0 0 xy xz yz

# Atom types
#
# 1 N_2
# 2 H__HB
# 3 O_3

# Bond Coeffs
#
# 1 N_2*H__HB
# 2 O_3*H__HB

# Angle Coeffs
#
# 1 N_2
# 2 O_3

# Dihedral Coeffs
#

# Inversion Coeffs
#
# 1 1

 Masses

 1 14.01
 2 1.01
 3 16

 Atoms # full

1 1 1 0 13.2830038655761 9.44788542109385 14.2408258489883
2 1 2 0 12.8231103456424 8.65820425235187 13.914576416717
3 1 2 0 13.223063008939 9.68453084569946 15.1797795628203
4 1 2 0 14.0004099255509 10.2103851816442 13.3937337995202
5 2 2 0 2.06331413981505 12.245000824742 7.14453560183756
6 2 3 0 3.02331413981505 12.245000824742 7.14453560183756
7 2 2 0 3.26331413981505 11.315000824742 7.14453560183756
8 3 2 0 7.22454567600042 10.788462978499 14.1059868154116
9 3 3 0 8.18454567600042 10.788462978499 14.1059868154116
10 3 2 0 8.42454567600042 9.85846297849901 14.1059868154116
11 4 2 0 10.6243458918482 12.0162287882436 3.06758648366667
12 4 3 0 11.5843458918482 12.0162287882436 3.06758648366667
13 4 2 0 11.8243458918482 11.0862287882436 3.06758648366667
14 5 2 0 1.40317266035825 8.35270188324153 6.76309400238097
15 5 3 0 2.36317266035825 8.35270188324153 6.76309400238097
16 5 2 0 2.60317266035825 7.42270188324153 6.76309400238097
17 6 2 0 1.43030218125321 8.84564788470976 8.88670869986527
18 6 3 0 2.39030218125321 8.84564788470976 8.88670869986527
19 6 2 0 2.63030218125321 7.91564788470976 8.88670869986527
20 7 2 0 5.97598941807635 6.04521028505638 4.80874676140957
21 7 3 0 6.93598941807635 6.04521028505638 4.80874676140957
22 7 2 0 7.17598941807635 5.11521028505638 4.80874676140957
23 8 2 0 5.9207624760177 8.51566810085438 12.8982363129035
24 8 3 0 6.8807624760177 8.51566810085438 12.8982363129035
25 8 2 0 7.1207624760177 7.58566810085438 12.8982363129035
26 9 2 0 7.27913984024897 1.38802331564017 8.59026551130228
27 9 3 0 8.23913984024897 1.38802331564017 8.59026551130228
28 9 2 0 8.47913984024897 0.458023315640166 8.59026551130228
29 10 2 0 1.17548099180683 9.42104096798226 0.47019183402881
30 10 3 0 2.13548099180684 9.42104096798226 0.47019183402881
31 10 2 0 2.37548099180684 8.49104096798226 0.47019183402881
32 11 2 0 7.66559799129143 13.3033772841468 2.29920373298228
33 11 3 0 8.62559799129143 13.3033772841468 2.29920373298228
34 11 2 0 8.86559799129143 12.3733772841468 2.29920373298228
35 12 2 0 13.8424607638456 12.9363277232647 8.85829097474925
36 12 3 0 14.8024607638456 12.9363277232647 8.85829097474925
37 12 2 0 15.0424607638456 12.0063277232647 8.85829097474925
38 13 2 0 8.15726263026707 8.28921438352205 0.949839446693659
39 13 3 0 9.11726263026707 8.28921438352205 0.949839446693659
40 13 2 0 9.35726263026707 7.35921438352205 0.949839446693659
41 14 2 0 12.8777250302676 0.907877755062655 13.6777322203852
42 14 3 0 13.8377250302676 0.907877755062655 13.6777322203852
43 14 2 0 14.0777250302676 -0.0221222449373454 13.6777322203852
44 15 2 0 0.381504525868222 11.9212520010211 3.56375535135157
45 15 3 0 1.34150452586822 11.9212520010211 3.56375535135157
46 15 2 0 1.58150452586822 10.9912520010211 3.56375535135157
47 16 2 0 10.4089571283851 7.44347389944829 4.47633446194232
48 16 3 0 11.3689571283851 7.44347389944829 4.47633446194232
49 16 2 0 11.6089571283851 6.51347389944829 4.47633446194232
50 17 2 0 -0.247409279253334 1.43652334733866 4.92974810418673
51 17 3 0 0.712590720746666 1.43652334733866 4.92974810418673
52 17 2 0 0.952590720746666 0.506523347338661 4.92974810418673
53 18 2 0 13.9861355458573 5.33613309305161 0.976841468364
54 18 3 0 14.9461355458573 5.33613309305161 0.976841468364
55 18 2 0 15.1861355458573 4.40613309305161 0.976841468364
56 19 2 0 13.0487844643369 2.88385936565697 5.36695543443784
57 19 3 0 14.0087844643369 2.88385936565697 5.36695543443784
58 19 2 0 14.2487844643369 1.95385936565697 5.36695543443784
59 20 2 0 2.08808465788141 5.05300342961214 0.771317125763744
60 20 3 0 3.04808465788141 5.05300342961214 0.771317125763744
61 20 2 0 3.28808465788141 4.12300342961214 0.771317125763744
62 21 2 0 11.9260949261673 2.70605627139099 0.715759936720133
63 21 3 0 12.8860949261673 2.70605627139099 0.715759936720133
64 21 2 0 13.1260949261673 1.77605627139099 0.715759936720133
65 22 2 0 1.38611306712963 3.38521960698068 9.4062400131952
66 22 3 0 2.34611306712963 3.38521960698068 9.4062400131952
67 22 2 0 2.58611306712963 2.45521960698068 9.4062400131952
68 23 2 0 8.64439342796802 0.763517724527046 13.7892517796718
69 23 3 0 9.60439342796803 0.763517724527046 13.7892517796718
70 23 2 0 9.84439342796803 -0.166482275472954 13.7892517796718
71 24 2 0 3.85472107023932 6.19715981808491 13.054560944438
72 24 3 0 4.81472107023932 6.19715981808491 13.054560944438
73 24 2 0 5.05472107023932 5.26715981808491 13.054560944438
74 25 2 0 1.45426565126516 9.31647513684817 8.98293511010706
75 25 3 0 2.41426565126516 9.31647513684817 8.98293511010706
76 25 2 0 2.65426565126516 8.38647513684817 8.98293511010706
77 26 2 0 14.2366422274802 12.2797991898283 12.782863418106
78 26 3 0 15.1966422274802 12.2797991898283 12.782863418106
79 26 2 0 15.4366422274802 11.3497991898283 12.782863418106
80 27 2 0 0.823315791059285 8.35629783495329 12.6613220747095
81 27 3 0 1.78331579105929 8.35629783495329 12.6613220747095
82 27 2 0 2.02331579105929 7.42629783495329 12.6613220747095
83 28 2 0 -0.430928478743881 9.37886123353615 13.7094956450164
84 28 3 0 0.529071521256119 9.37886123353615 13.7094956450164
85 28 2 0 0.769071521256119 8.44886123353615 13.7094956450164
86 29 2 0 7.54302603352815 3.15723743214272 10.0644144730177
87 29 3 0 8.50302603352815 3.15723743214272 10.0644144730177
88 29 2 0 8.74302603352815 2.22723743214272 10.0644144730177
89 30 2 0 4.68376432123594 9.67176908202469 2.03144956030883
90 30 3 0 5.64376432123594 9.67176908202469 2.03144956030883
91 30 2 0 5.88376432123594 8.74176908202469 2.03144956030883
92 31 2 0 2.80739574154839 5.54776322603226 13.0159784678835
93 31 3 0 3.76739574154839 5.54776322603226 13.0159784678835
94 31 2 0 4.00739574154839 4.61776322603226 13.0159784678835
95 32 2 0 13.2879084201716 5.12375545146875 5.9776818996761
96 32 3 0 14.2479084201716 5.12375545146875 5.9776818996761
97 32 2 0 14.4879084201716 4.19375545146875 5.9776818996761
98 33 2 0 3.63236417572014 8.94407001830638 1.04079421260394
99 33 3 0 4.59236417572014 8.94407001830638 1.04079421260394
100 33 2 0 4.83236417572014 8.01407001830638 1.04079421260394
101 34 2 0 13.5873304079007 5.51351703627966 3.47785128629766
102 34 3 0 14.5473304079007 5.51351703627966 3.47785128629766
103 34 2 0 14.7873304079007 4.58351703627966 3.47785128629766
104 35 2 0 5.02148200568743 12.0493734457437 7.8192520304583
105 35 3 0 5.98148200568743 12.0493734457437 7.8192520304583
106 35 2 0 6.22148200568743 11.1193734457437 7.8192520304583
107 36 2 0 14.1452327712625 4.87072233850136 0.660822275094688
108 36 3 0 15.1052327712625 4.87072233850136 0.660822275094688
109 36 2 0 15.3452327712625 3.94072233850136 0.660822275094688
110 37 2 0 4.51724857019261 10.3791448908765 14.3884537951089
111 37 3 0 5.47724857019261 10.3791448908765 14.3884537951089
112 37 2 0 5.71724857019261 9.44914489087649 14.3884537951089
113 38 2 0 5.01446916067041 11.1373112925235 3.20066702202894
114 38 3 0 5.97446916067041 11.1373112925235 3.20066702202894
115 38 2 0 6.21446916067041 10.2073112925235 3.20066702202894
116 39 2 0 7.30893781336024 12.7028353132214 7.16026172507554
117 39 3 0 8.26893781336024 12.7028353132214 7.16026172507554
118 39 2 0 8.50893781336024 11.7728353132214 7.16026172507554
119 40 2 0 6.33266192089766 4.9700297128316 9.753888042178
120 40 3 0 7.29266192089766 4.9700297128316 9.753888042178
121 40 2 0 7.53266192089766 4.0400297128316 9.753888042178
122 41 2 0 11.7128483501449 9.63980146026239 4.69425381277688
123 41 3 0 12.6728483501449 9.63980146026239 4.69425381277688
124 41 2 0 12.9128483501449 8.70980146026239 4.69425381277688
125 42 2 0 8.40250240682624 3.27835673274472 11.7539477348328
126 42 3 0 9.36250240682624 3.27835673274472 11.7539477348328
127 42 2 0 9.60250240682624 2.34835673274472 11.7539477348328
128 43 2 0 1.13178250889294 6.77460787858814 5.58700792724267
129 43 3 0 2.09178250889294 6.77460787858814 5.58700792724267
130 43 2 0 2.33178250889294 5.84460787858814 5.58700792724267
131 44 2 0 11.7563011035975 3.85186250129715 0.693854367127642
132 44 3 0 12.7163011035975 3.85186250129715 0.693854367127642
133 44 2 0 12.9563011035975 2.92186250129715 0.693854367127642
134 45 2 0 7.94052741184831 3.19025335059501 13.666593648959
135 45 3 0 8.90052741184831 3.19025335059501 13.666593648959
136 45 2 0 9.14052741184831 2.26025335059501 13.666593648959
137 46 2 0 6.8362416377943 2.27563385077752 11.2170520692598
138 46 3 0 7.7962416377943 2.27563385077752 11.2170520692598
139 46 2 0 8.0362416377943 1.34563385077752 11.2170520692598
140 47 2 0 8.03320759951137 14.5522074032947 12.6160088879988
141 47 3 0 8.99320759951137 14.5522074032947 12.6160088879988
142 47 2 0 9.23320759951137 13.6222074032947 12.6160088879988
143 48 2 0 5.87765616059303 11.1072527260426 3.43272808589973
144 48 3 0 6.83765616059303 11.1072527260426 3.43272808589973
145 48 2 0 7.07765616059303 10.1772527260426 3.43272808589973
146 49 2 0 9.88699318069965 6.98050604359247 14.3057592480909
147 49 3 0 10.8469931806996 6.98050604359247 14.3057592480909
148 49 2 0 11.0869931806996 6.05050604359247 14.3057592480909
149 50 2 0 3.54642355159856 1.57088756020181 12.8515174600761
150 50 3 0 4.50642355159856 1.57088756020181 12.8515174600761
151 50 2 0 4.74642355159856 0.640887560201809 12.8515174600761
152 51 2 0 10.9005654549412 0.321640535667539 2.95741541543975
153 51 3 0 11.8605654549412 0.321640535667539 2.95741541543975
154 51 2 0 12.1005654549412 -0.608359464332461 2.95741541543975
155 52 2 0 -0.645027057761326 13.8671381961927 10.8769944647793
156 52 3 0 0.314972942238674 13.8671381961927 10.8769944647793
157 52 2 0 0.554972942238674 12.9371381961927 10.8769944647793
158 53 2 0 6.38383986937813 12.5103615379799 2.19469285919331
159 53 3 0 7.34383986937813 12.5103615379799 2.19469285919331
160 53 2 0 7.58383986937814 11.5803615379799 2.19469285919331
161 54 2 0 11.8457056085765 2.12496546370909 1.73256032983772
162 54 3 0 12.8057056085765 2.12496546370909 1.73256032983772
163 54 2 0 13.0457056085765 1.19496546370909 1.73256032983772
164 55 2 0 11.1462868172396 13.146643056944 8.96860131178983
165 55 3 0 12.1062868172396 13.146643056944 8.96860131178983
166 55 2 0 12.3462868172396 12.216643056944 8.96860131178983
167 56 2 0 7.79868072641082 13.3632308586407 0.269982767058536
168 56 3 0 8.75868072641082 13.3632308586407 0.269982767058536
169 56 2 0 8.99868072641082 12.4332308586407 0.269982767058536
170 57 2 0 9.78117302569561 8.78654450451955 10.8256841974799
171 57 3 0 10.7411730256956 8.78654450451955 10.8256841974799
172 57 2 0 10.9811730256956 7.85654450451955 10.8256841974799
173 58 2 0 7.47124031695537 8.41841919621453 5.20497451652773
174 58 3 0 8.43124031695537 8.41841919621453 5.20497451652773
175 58 2 0 8.67124031695537 7.48841919621453 5.20497451652773
176 59 2 0 11.5251121907216 11.3494954239018 8.80121800932102
177 59 3 0 12.4851121907216 11.3494954239018 8.80121800932102
178 59 2 0 12.7251121907216 10.4194954239018 8.80121800932102
179 60 2 0 0.0589929443970323 3.31581813324243 10.8636658487376
180 60 3 0 1.01899294439703 3.31581813324243 10.8636658487376
181 60 2 0 1.25899294439703 2.38581813324243 10.8636658487376
182 61 2 0 8.46509273207746 7.34495349851437 0.797426268691197
183 61 3 0 9.42509273207746 7.34495349851437 0.797426268691197
184 61 2 0 9.66509273207746 6.41495349851437 0.797426268691197
185 62 2 0 4.51325637797825 4.10959235782735 6.85109606478363
186 62 3 0 5.47325637797825 4.10959235782735 6.85109606478363
187 62 2 0 5.71325637797825 3.17959235782735 6.85109606478363
188 63 2 0 1.36520788117312 3.79346495418809 7.27993823820725
189 63 3 0 2.32520788117312 3.79346495418809 7.27993823820725
190 63 2 0 2.56520788117312 2.86346495418809 7.27993823820725
191 64 2 0 11.2201614193339 11.6698041189834 13.9562456274871
192 64 3 0 12.1801614193339 11.6698041189834 13.9562456274871
193 64 2 0 12.4201614193339 10.7398041189834 13.9562456274871
194 65 2 0 9.70332009994425 3.71359815047123 1.74465770716779
195 65 3 0 10.6633200999442 3.71359815047123 1.74465770716779
196 65 2 0 10.9033200999442 2.78359815047123 1.74465770716779
197 66 2 0 12.451073453268 10.5977787535544 0.732054597465321
198 66 3 0 13.411073453268 10.5977787535544 0.732054597465321
199 66 2 0 13.651073453268 9.66777875355445 0.732054597465321
200 67 2 0 10.3801084966119 3.93627936177887 4.5371293311473
201 67 3 0 11.3401084966119 3.93627936177887 4.5371293311473
202 67 2 0 11.5801084966119 3.00627936177887 4.5371293311473
203 68 2 0 2.13798570374027 0.998975533703342 3.41308147413656
204 68 3 0 3.09798570374027 0.998975533703342 3.41308147413656
205 68 2 0 3.33798570374027 0.068975533703342 3.41308147413656
206 69 2 0 12.3207480010763 3.40213212574832 4.94283445179462
207 69 3 0 13.2807480010763 3.40213212574832 4.94283445179462
208 69 2 0 13.5207480010763 2.47213212574832 4.94283445179462
209 70 2 0 7.14540902336128 7.25510625791736 14.290463643847
210 70 3 0 8.10540902336128 7.25510625791736 14.290463643847
211 70 2 0 8.34540902336128 6.32510625791736 14.290463643847
212 71 2 0 10.8679527409561 2.85205329460092 3.03464274038561
213 71 3 0 11.8279527409561 2.85205329460092 3.03464274038561
214 71 2 0 12.0679527409561 1.92205329460092 3.03464274038561
215 72 2 0 0.46911400786601 7.02093566110358 8.96003513247706
216 72 3 0 1.42911400786601 7.02093566110358 8.96003513247706
217 72 2 0 1.66911400786601 6.09093566110358 8.96003513247706
218 73 2 0 1.45100290115923 3.31676493556239 2.12262019864284
219 73 3 0 2.41100290115923 3.31676493556239 2.12262019864284
220 73 2 0 2.65100290115923 2.38676493556239 2.12262019864284
221 74 2 0 4.01087257007137 2.25061372312717 10.5948795354925
222 74 3 0 4.97087257007137 2.25061372312717 10.5948795354925
223 74 2 0 5.21087257007137 1.32061372312717 10.5948795354925
224 75 2 0 13.874291257672 8.55440794065595 9.83840184635483
225 75 3 0 14.834291257672 8.55440794065595 9.83840184635483
226 75 2 0 15.074291257672 7.62440794065595 9.83840184635483
227 76 2 0 13.74255395771 4.84768322477117 13.9015160012059
228 76 3 0 14.70255395771 4.84768322477117 13.9015160012059
229 76 2 0 14.94255395771 3.91768322477117 13.9015160012059
230 77 2 0 12.1473107468057 1.22150416643359 3.97025067242794
231 77 3 0 13.1073107468057 1.22150416643359 3.97025067242794
232 77 2 0 13.3473107468057 0.291504166433588 3.97025067242794
233 78 2 0 9.29114764949307 12.6508478195779 14.1945846390445
234 78 3 0 10.2511476494931 12.6508478195779 14.1945846390445
235 78 2 0 10.4911476494931 11.7208478195779 14.1945846390445
236 79 2 0 0.351419493528083 14.4161389993411 6.68108788551763
237 79 3 0 1.31141949352808 14.4161389993411 6.68108788551763
238 79 2 0 1.55141949352808 13.4861389993411 6.68108788551763
239 80 2 0 13.0249757836293 2.78624558629468 10.6228834041394
240 80 3 0 13.9849757836293 2.78624558629468 10.6228834041394
241 80 2 0 14.2249757836293 1.85624558629468 10.6228834041394
242 81 2 0 0.320849072160199 15.041908927206 1.43061526003294
243 81 3 0 1.2808490721602 15.041908927206 1.43061526003294
244 81 2 0 1.5208490721602 14.111908927206 1.43061526003294
245 82 2 0 9.467289143214 6.32609306759201 1.61019415827468
246 82 3 0 10.427289143214 6.32609306759201 1.61019415827468
247 82 2 0 10.667289143214 5.39609306759201 1.61019415827468
248 83 2 0 4.884667350417 8.72189313214272 13.080168220913
249 83 3 0 5.844667350417 8.72189313214272 13.080168220913
250 83 2 0 6.084667350417 7.79189313214272 13.080168220913
251 84 2 0 7.04681667426601 12.339196069343 5.09749988210388
252 84 3 0 8.00681667426601 12.339196069343 5.09749988210388
253 84 2 0 8.24681667426601 11.409196069343 5.09749988210388
254 85 2 0 10.2681864383351 3.18485753884539 2.66533454996534
255 85 3 0 11.2281864383351 3.18485753884539 2.66533454996534
256 85 2 0 11.4681864383351 2.25485753884539 2.66533454996534
257 86 2 0 10.6843650683016 11.4987351470068 7.03490444691852
258 86 3 0 11.6443650683016 11.4987351470068 7.03490444691852
259 86 2 0 11.8843650683016 10.5687351470068 7.03490444691852
260 87 2 0 7.21594653485343 11.958390799528 7.92367320042104
261 87 3 0 8.17594653485343 11.958390799528 7.92367320042104
262 87 2 0 8.41594653485343 11.028390799528 7.92367320042104
263 88 2 0 12.7077169487905 7.21047016134486 12.9207510373089
264 88 3 0 13.6677169487905 7.21047016134486 12.9207510373089
265 88 2 0 13.9077169487905 6.28047016134486 12.9207510373089
266 89 2 0 11.0824031363893 1.97126584867015 4.51849088072777
267 89 3 0 12.0424031363893 1.97126584867015 4.51849088072777
268 89 2 0 12.2824031363893 1.04126584867015 4.51849088072777
269 90 2 0 4.25833721805364 11.5059795036819 2.06183443777263
270 90 3 0 5.21833721805364 11.5059795036819 2.06183443777263
271 90 2 0 5.45833721805364 10.5759795036819 2.06183443777263
272 91 2 0 1.61719676267356 3.77732918638736 0.242555063450709
273 91 3 0 2.57719676267356 3.77732918638736 0.242555063450709
274 91 2 0 2.81719676267356 2.84732918638736 0.242555063450709
275 92 2 0 13.997364317039 0.52091923234053 4.73420890979469
276 92 3 0 14.957364317039 0.52091923234053 4.73420890979469
277 92 2 0 15.197364317039 -0.40908076765947 4.73420890979469
278 93 2 0 9.88512501862831 11.5746622187458 12.2783150500618
279 93 3 0 10.8451250186283 11.5746622187458 12.2783150500618
280 93 2 0 11.0851250186283 10.6446622187458 12.2783150500618
281 94 2 0 12.3528864320554 10.7318020988628 1.19193122838624
282 94 3 0 13.3128864320554 10.7318020988628 1.19193122838624
283 94 2 0 13.5528864320554 9.80180209886283 1.19193122838624
284 95 2 0 0.216022301902995 8.05198468890972 7.95700734830461
285 95 3 0 1.17602230190299 8.05198468890972 7.95700734830461
286 95 2 0 1.41602230190299 7.12198468890972 7.95700734830461
287 96 2 0 4.66472807267681 2.20114138716832 3.67897590156645
288 96 3 0 5.62472807267681 2.20114138716832 3.67897590156645
289 96 2 0 5.86472807267681 1.27114138716832 3.67897590156645
290 97 2 0 11.5183904631715 0.349737677434459 6.23203625902534
291 97 3 0 12.4783904631715 0.349737677434459 6.23203625902534
292 97 2 0 12.7183904631715 -0.580262322565541 6.23203625902534
293 98 2 0 1.3701842834428 8.07353459339589 3.94649058929645
294 98 3 0 2.3301842834428 8.07353459339589 3.94649058929645
295 98 2 0 2.5701842834428 7.14353459339589 3.94649058929645
296 99 2 0 3.28731340865605 2.95680171152577 1.67438005912118
297 99 3 0 4.24731340865605 2.95680171152577 1.67438005912118
298 99 2 0 4.48731340865605 2.02680171152577 1.67438005912118
299 100 2 0 0.307966495603323 1.19493749382906 6.95408611907624
300 100 3 0 1.26796649560332 1.19493749382906 6.95408611907624
301 100 2 0 1.50796649560332 0.264937493829057 6.95408611907624
302 101 2 0 5.53120595446788 1.52999130118638 0.10591828613542
303 101 3 0 6.49120595446788 1.52999130118638 0.10591828613542
304 101 2 0 6.73120595446788 0.599991301186383 0.10591828613542
305 102 2 0 8.47576376443729 9.20985602232628 9.39193014870398
306 102 3 0 9.43576376443729 9.20985602232628 9.39193014870398
307 102 2 0 9.67576376443729 8.27985602232628 9.39193014870398
308 103 2 0 1.80444537123665 15.1319268687535 8.70747411623597
309 103 3 0 2.76444537123665 15.1319268687535 8.70747411623597
310 103 2 0 3.00444537123665 14.2019268687535 8.70747411623597
311 104 2 0 12.829393551657 1.69155303662643 3.11462395358831
312 104 3 0 13.789393551657 1.69155303662643 3.11462395358831
313 104 2 0 14.029393551657 0.761553036626428 3.11462395358831
314 105 2 0 2.25327975626104 4.41292428685352 4.32629561517388
315 105 3 0 3.21327975626104 4.41292428685352 4.32629561517388
316 105 2 0 3.45327975626104 3.48292428685352 4.32629561517388
317 106 2 0 8.76586892802268 12.8500635157712 11.0408310592175
318 106 3 0 9.72586892802268 12.8500635157712 11.0408310592175
319 106 2 0 9.96586892802268 11.9200635157712 11.0408310592175
320 107 2 0 1.2485705867596 5.29151636915281 6.67536369874142
321 107 3 0 2.2085705867596 5.29151636915281 6.67536369874142
322 107 2 0 2.4485705867596 4.36151636915281 6.67536369874142
323 108 2 0 9.81878514678217 11.1872018156014 4.35680253314786
324 108 3 0 10.7787851467822 11.1872018156014 4.35680253314786
325 108 2 0 11.0187851467822 10.2572018156014 4.35680253314786
326 109 2 0 3.51354679718614 4.67814228072762 1.80634659714997
327 109 3 0 4.47354679718614 4.67814228072762 1.80634659714997
328 109 2 0 4.71354679718614 3.74814228072762 1.80634659714997
329 110 2 0 8.75530977311544 3.59140381490812 1.48867819109
330 110 3 0 9.71530977311544 3.59140381490812 1.48867819109
331 110 2 0 9.95530977311544 2.66140381490812 1.48867819109
332 111 2 0 7.64338602821343 11.3982495006081 6.11888589221053
333 111 3 0 8.60338602821343 11.3982495006081 6.11888589221053
334 111 2 0 8.84338602821343 10.4682495006081 6.11888589221053
335 112 2 0 2.08753160943277 13.5341918507498 9.63247133069672
336 112 3 0 3.04753160943277 13.5341918507498 9.63247133069672
337 112 2 0 3.28753160943277 12.6041918507498 9.63247133069672
338 113 2 0 11.8226991144195 8.81832051597536 14.4898411282338
339 113 3 0 12.7826991144195 8.81832051597536 14.4898411282338
340 113 2 0 13.0226991144195 7.88832051597536 14.4898411282338
341 114 2 0 3.98379285165109 10.7394691618998 10.1170747575816
342 114 3 0 4.94379285165109 10.7394691618998 10.1170747575816
343 114 2 0 5.18379285165109 9.80946916189976 10.1170747575816
344 115 2 0 8.61174438541755 1.68736002798192 11.4984149218071
345 115 3 0 9.57174438541755 1.68736002798192 11.4984149218071
346 115 2 0 9.81174438541755 0.757360027981922 11.4984149218071
347 116 2 0 6.00711969469674 1.20054020936601 9.78623442817479
348 116 3 0 6.96711969469674 1.20054020936601 9.78623442817479
349 116 2 0 7.20711969469674 0.270540209366009 9.78623442817479
350 117 2 0 1.85137572742067 4.53079271869734 9.72230010665953
351 117 3 0 2.81137572742067 4.53079271869734 9.72230010665953
352 117 2 0 3.05137572742067 3.60079271869734 9.72230010665953
353 118 2 0 3.5035658923164 2.5682645341754 13.8781768013723
354 118 3 0 4.4635658923164 2.5682645341754 13.8781768013723
355 118 2 0 4.7035658923164 1.6382645341754 13.8781768013723
356 119 2 0 10.6508720658906 3.84958958410658 14.9451278254855
357 119 3 0 11.6108720658906 3.84958958410658 14.9451278254855
358 119 2 0 11.8508720658906 2.91958958410658 14.9451278254855
359 120 2 0 -0.00415025817230341 10.6336771386582 12.0300957374275
360 120 3 0 0.955849741827697 10.6336771386582 12.0300957374275
361 120 2 0 1.1958497418277 9.70367713865824 12.0300957374275
362 121 2 0 5.17129047235474 13.5106388180889 7.67848889459856
363 121 3 0 6.13129047235474 13.5106388180889 7.67848889459856
364 121 2 0 6.37129047235474 12.5806388180889 7.67848889459856
365 122 2 0 7.89869196058251 9.31464792037383 5.18558658077382
366 122 3 0 8.85869196058251 9.31464792037383 5.18558658077382
367 122 2 0 9.09869196058251 8.38464792037383 5.18558658077382
368 123 2 0 11.4487228465453 1.6673643239215 0.288756896043196
369 123 3 0 12.4087228465453 1.6673643239215 0.288756896043196
370 123 2 0 12.6487228465453 0.737364323921502 0.288756896043196
371 124 2 0 2.93972338942811 7.7902384513896 14.0793302922975
372 124 3 0 3.89972338942811 7.7902384513896 14.0793302922975
373 124 2 0 4.13972338942811 6.8602384513896 14.0793302922975
374 125 2 0 1.42520224020816 7.59370219119824 9.01643713703379
375 125 3 0 2.38520224020816 7.59370219119824 9.01643713703379
376 125 2 0 2.62520224020816 6.66370219119824 9.01643713703379
377 126 2 0 1.76767962330021 8.99872675695457 7.24262880161405
378 126 3 0 2.72767962330021 8.99872675695457 7.24262880161405
379 126 2 0 2.96767962330021 8.06872675695457 7.24262880161405
380 127 2 0 4.61649008022621 1.13020559930243 9.65352434897795
381 127 3 0 5.57649008022621 1.13020559930243 9.65352434897795
382 127 2 0 5.81649008022621 0.200205599302426 9.65352434897795
383 128 2 0 12.2702379750274 10.2939606881142 4.28732129861601
384 128 3 0 13.2302379750274 10.2939606881142 4.28732129861601
385 128 2 0 13.4702379750274 9.36396068811417 4.28732129861601
386 129 2 0 -0.0124068483989686 4.36191775877029 12.5414372782689
387 129 3 0 0.947593151601031 4.36191775877029 12.5414372782689
388 129 2 0 1.18759315160103 3.43191775877029 12.5414372782689
389 130 2 0 11.6406268025469 5.13774264062755 5.43978487257846
390 130 3 0 12.6006268025469 5.13774264062755 5.43978487257846
391 130 2 0 12.8406268025469 4.20774264062755 5.43978487257846
392 131 2 0 6.36004378597252 5.46043896622956 7.39962858147919
393 131 3 0 7.32004378597252 5.46043896622956 7.39962858147919
394 131 2 0 7.56004378597252 4.53043896622956 7.39962858147919
395 132 2 0 13.5377281803824 4.20263108139858 0.654479028889909
396 132 3 0 14.4977281803824 4.20263108139858 0.654479028889909
397 132 2 0 14.7377281803824 3.27263108139858 0.654479028889909
398 133 2 0 4.82191825794987 14.9594255133439 1.82339914957993
399 133 3 0 5.78191825794987 14.9594255133439 1.82339914957993
400 133 2 0 6.02191825794987 14.0294255133439 1.82339914957993
401 134 2 0 3.01486225842498 3.39715203893371 13.4827677870635
402 134 3 0 3.97486225842498 3.39715203893371 13.4827677870635
403 134 2 0 4.21486225842498 2.46715203893371 13.4827677870635
404 135 2 0 13.353010312859 9.14579264744185 4.63266340317205
405 135 3 0 14.313010312859 9.14579264744185 4.63266340317205
406 135 2 0 14.553010312859 8.21579264744185 4.63266340317205
407 136 2 0 5.42262963063084 1.50367511826567 10.1237190363463
408 136 3 0 6.38262963063084 1.50367511826567 10.1237190363463
409 136 2 0 6.62262963063084 0.573675118265673 10.1237190363463
410 137 2 0 3.04648084726185 9.14124346728437 13.2885292195715
411 137 3 0 4.00648084726185 9.14124346728437 13.2885292195715
412 137 2 0 4.24648084726185 8.21124346728437 13.2885292195715
413 138 2 0 8.15937158695422 9.1174234186206 9.33009641594253
414 138 3 0 9.11937158695422 9.1174234186206 9.33009641594253
415 138 2 0 9.35937158695422 8.1874234186206 9.33009641594253
416 139 2 0 10.2826570118498 6.81541442679241 13.2756153785158
417 139 3 0 11.2426570118498 6.81541442679241 13.2756153785158
418 139 2 0 11.4826570118498 5.88541442679241 13.2756153785158
419 140 2 0 13.6613905329444 5.22643820772879 10.2564753592014
420 140 3 0 14.6213905329444 5.22643820772879 10.2564753592014
421 140 2 0 14.8613905329444 4.29643820772879 10.2564753592014
422 141 2 0 1.9751692358125 10.5675371647254 13.2212309853639
423 141 3 0 2.9351692358125 10.5675371647254 13.2212309853639
424 141 2 0 3.1751692358125 9.63753716472536 13.2212309853639
425 142 2 0 11.8542402090691 9.49031759327278 0.643041464500129
426 142 3 0 12.8142402090691 9.49031759327278 0.643041464500129
427 142 2 0 13.0542402090691 8.56031759327278 0.643041464500129
428 143 2 0 2.86966907369904 4.27955784177408 3.94120889366604
429 143 3 0 3.82966907369904 4.27955784177408 3.94120889366604
430 143 2 0 4.06966907369904 3.34955784177408 3.94120889366604
431 144 2 0 12.8224368618987 7.06386455259286 9.90762994391844
432 144 3 0 13.7824368618988 7.06386455259286 9.90762994391844
433 144 2 0 14.0224368618988 6.13386455259286 9.90762994391844
434 145 2 0 0.76769956198521 3.8578737403173 14.5653595437761
435 145 3 0 1.72769956198521 3.8578737403173 14.5653595437761
436 145 2 0 1.96769956198521 2.9278737403173 14.5653595437761
437 146 2 0 9.95988639115356 12.0909375398792 10.5689717992209
438 146 3 0 10.9198863911536 12.0909375398792 10.5689717992209
439 146 2 0 11.1598863911536 11.1609375398792 10.5689717992209
440 147 2 0 4.26503619921394 10.5752834961191 11.9422626891173
441 147 3 0 5.22503619921394 10.5752834961191 11.9422626891173
442 147 2 0 5.46503619921394 9.64528349611908 11.9422626891173
443 148 2 0 -0.36482283918187 12.1393676350731 10.2837352012284
444 148 3 0 0.59517716081813 12.1393676350731 10.2837352012284
445 148 2 0 0.83517716081813 11.2093676350731 10.2837352012284
446 149 2 0 0.383652905439958 5.93139488756657 11.5625676058698
447 149 3 0 1.34365290543996 5.93139488756657 11.5625676058698
448 149 2 0 1.58365290543996 5.00139488756657 11.5625676058698
449 150 2 0 4.41624385697767 8.17747253616341 11.6960897413082
450 150 3 0 5.37624385697767 8.17747253616341 11.6960897413082
451 150 2 0 5.61624385697767 7.2474725361634 11.6960897413082
452 151 2 0 3.2897649616655 8.99208196829073 8.69001351180486
453 151 3 0 4.2497649616655 8.99208196829073 8.69001351180486
454 151 2 0 4.4897649616655 8.06208196829073 8.69001351180486
455 152 2 0 8.35146239303984 7.4352169739455 4.28030641400255
456 152 3 0 9.31146239303984 7.4352169739455 4.28030641400255
457 152 2 0 9.55146239303984 6.5052169739455 4.28030641400255
458 153 2 0 9.77559046863578 7.99077813903801 14.5377253345214
459 153 3 0 10.7355904686358 7.99077813903801 14.5377253345214
460 153 2 0 10.9755904686358 7.06077813903801 14.5377253345214
461 154 2 0 10.3500645321049 11.4423458165862 10.9408904775046
462 154 3 0 11.3100645321049 11.4423458165862 10.9408904775046
463 154 2 0 11.5500645321049 10.5123458165862 10.9408904775046
464 155 2 0 2.72892275403254 6.94043345673941 0.500621568644419
465 155 3 0 3.68892275403254 6.94043345673941 0.500621568644419
466 155 2 0 3.92892275403254 6.01043345673941 0.500621568644419
467 156 2 0 -0.718607832239941 12.1741037016641 8.94208297133446
468 156 3 0 0.241392167760059 12.1741037016641 8.94208297133446
469 156 2 0 0.481392167760059 11.2441037016641 8.94208297133446
470 157 2 0 14.2465498605464 14.7352010330092 8.59369821846485
471 157 3 0 15.2065498605464 14.7352010330092 8.59369821846485
472 157 2 0 15.4465498605464 13.8052010330092 8.59369821846485
473 158 2 0 13.2861792195775 15.1985313048959 1.89800133579411
474 158 3 0 14.2461792195775 15.1985313048959 1.89800133579411
475 158 2 0 14.4861792195775 14.2685313048959 1.89800133579411
476 159 2 0 4.0154914911557 2.19825277728029 14.9537311505992