LAMMPS (29 Sep 2021 - Update 1)
# Test LAMMPS input file for single DeFDe

# Initialize simulation

clear

units real
atom_style full
boundary p p p
dielectric 1
special_bonds dreiding

bond_style harmonic
angle_style harmonic
dihedral_style harmonic
improper_style umbrella
pair_style hybrid/overlay hbond/dreiding/lj 4 9.0 11.0 90 lj/cut 8.50000

# Read data file
read_data frag5.dat
Reading data file ...
  triclinic box = (0.0000000 0.0000000 0.0000000) to (15.000000 15.000000 15.000000) with tilt (0.0000000 0.0000000 0.0000000)
  2 by 4 by 4 MPI processor grid
  reading atoms ...
  1504 atoms
  scanning bonds ...
  3 = max bonds/atom
  scanning angles ...
  3 = max angles/atom
  scanning impropers ...
  1 = max impropers/atom
  reading bonds ...
  1003 bonds
  reading angles ...
  503 angles
  reading impropers ...
  1 impropers
Finding 1-2 1-3 1-4 neighbors ...
  special bond factors lj:    0        0        1       
  special bond factors coul:  0        0        1       
     3 = max # of 1-2 neighbors
     2 = max # of 1-3 neighbors
     3 = max # of special neighbors
  special bonds CPU = 0.002 seconds
  read_data CPU = 0.016 seconds

# Dreiding potential information

bond_coeff 1 350 0.935
bond_coeff 2 350 0.98

angle_coeff 1 50 120
angle_coeff 2 50 104.51


improper_coeff 1 40 0

pair_coeff 1 1 lj/cut 0.0774 3.6621
pair_coeff 1 2 lj/cut 0.00278208554864871 3.41951536039831
pair_coeff 1 3 lj/cut 0.0860649754545948 3.53100349192691
pair_coeff 2 2 lj/cut 1e-04 3.193
pair_coeff 2 3 lj/cut 0.0030935416596516 3.29710294046152
pair_coeff 3 3 lj/cut 0.0957 3.4046
pair_coeff 1 1 hbond/dreiding/lj 2 j 9.50 2.75 4 9.0 11.0 90
pair_coeff 1 3 hbond/dreiding/lj 2 i 9.50 2.75 4 9.0 11.0 90
pair_coeff 1 3 hbond/dreiding/lj 2 j 9.50 2.75 4 9.0 11.0 90
pair_coeff 3 3 hbond/dreiding/lj 2 j 9.50 2.75 4 9.0 11.0 90

neighbor 2 bin
neigh_modify every 2 one 10000

# Gemoetric relaxation
fix 1 all box/relax iso 1.0 vmax 0.001
minimize 1.0e-4 1.0e-6 10000 10000
WARNING: Using 'neigh_modify every 1 delay 0 check yes' setting during minimization (../min.cpp:188)
Neighbor list info ...
  update every 1 steps, delay 0 steps, check yes
  max neighbors/atom: 10000, page size: 100000
  master list distance cutoff = 13
  ghost atom cutoff = 13
  binsize = 6.5, bins = 3 3 3
  3 neighbor lists, perpetual/occasional/extra = 3 0 0
  (1) pair hbond/dreiding/lj, perpetual, skip from (3)
      attributes: full, newton on
      pair build: skip
      stencil: none
      bin: none
  (2) pair lj/cut, perpetual, half/full from (3)
      attributes: half, newton on
      pair build: halffull/newton
      stencil: none
      bin: none
  (3) neighbor class addition, perpetual
      attributes: full, newton on
      pair build: full/bin
      stencil: full/bin/3d
      bin: standard
Per MPI rank memory allocation (min/avg/max) = 10.34 | 10.64 | 10.94 Mbytes
Step Temp E_pair E_mol TotEng Press Volume 
       0            0 1.0472751e+15    196.97104 1.0472751e+15 8.5108142e+16         3375 
    5223            0   -1113.1268    21.330168   -1091.7967    86.948094    36822.805 
Loop time of 4.65896 on 32 procs for 5223 steps with 1504 atoms

100.0% CPU use with 32 MPI tasks x no OpenMP threads

Minimization stats:
  Stopping criterion = energy tolerance
  Energy initial, next-to-last, final = 
    1.04727510429488e+15  -1091.21482626462  -1091.30885615265
  Force two-norm initial, final = 9.6555870e+16 98.201098
  Force max component initial, final = 5.8827692e+16 62.431327
  Final line search alpha, max atom move = 1.1605040e-05 0.00072451807
  Iterations, force evaluations = 5223 5224

MPI task timing breakdown:
Section |  min time  |  avg time  |  max time  |%varavg| %total
---------------------------------------------------------------
Pair    | 1.2771     | 2.4903     | 3.9364     |  40.6 | 53.45
Bond    | 0.0062588  | 0.010461   | 0.015789   |   2.2 |  0.22
Neigh   | 0.096499   | 0.096752   | 0.097      |   0.1 |  2.08
Comm    | 0.27196    | 1.7214     | 2.9363     |  48.9 | 36.95
Output  | 0          | 0          | 0          |   0.0 |  0.00
Modify  | 0          | 0          | 0          |   0.0 |  0.00
Other   |            | 0.34       |            |       |  7.30

Nlocal:        47.0000 ave          70 max          29 min
Histogram: 4 2 5 3 1 9 3 2 1 2
Nghost:        1935.50 ave        1984 max        1868 min
Histogram: 1 0 3 2 4 6 5 6 3 2
Neighs:        4842.25 ave        7922 max        2682 min
Histogram: 2 4 6 3 7 4 2 2 0 2

Total # of neighbors = 154952
Ave neighs/atom = 103.02660
Ave special neighs/atom = 2.0026596
Neighbor list builds = 94
Dangerous builds = 0

# MD simulation
velocity all create 300.0 12345 rot yes dist gaussian
timestep 1.0
fix 2 all nvt temp 300.0 300.0 1

# Compute interaction energy
group WAT molecule <> 2 501
1500 atoms in group WAT
group MOL molecule 1
4 atoms in group MOL

compute w WAT group/group MOL pair yes
fix 3 all ave/time 10 5 100 c_w file outa

# Outputs
thermo 100 # Output thermodynamic data every nth step
#dump mf1 all xyz 10000 mol_*.xyz

# Run
run 1000000
Neighbor list info ...
  update every 2 steps, delay 10 steps, check yes
  max neighbors/atom: 10000, page size: 100000
  master list distance cutoff = 13
  ghost atom cutoff = 13
  binsize = 6.5, bins = 6 6 6
  4 neighbor lists, perpetual/occasional/extra = 3 1 0
  (1) pair hbond/dreiding/lj, perpetual, skip from (4)
      attributes: full, newton on
      pair build: skip
      stencil: none
      bin: none
  (2) pair lj/cut, perpetual, half/full from (4)
      attributes: half, newton on
      pair build: halffull/newton
      stencil: none
      bin: none
  (3) compute group/group, occasional, copy from (2)
      attributes: half, newton on
      pair build: copy
      stencil: none
      bin: none
  (4) neighbor class addition, perpetual
      attributes: full, newton on
      pair build: full/bin
      stencil: full/bin/3d
      bin: standard
Per MPI rank memory allocation (min/avg/max) = 9.193 | 9.218 | 9.470 Mbytes
Step Temp E_pair E_mol TotEng Press Volume 
    5223          300   -1113.1268    21.330168    252.25059    1755.4646    36822.805 
    5300    302.57169   -1157.9427    241.17515    438.80124    1240.4724    36822.805 
    5400    297.50197   -1114.7076    159.12185    377.26991    748.37364    36822.805 
    5500    300.02124   -1122.1943    160.34075    382.28883    358.66364    36822.805 
    5600    298.75491   -1129.4678    169.67426    378.67555     219.6928    36822.805 
    5700    301.79419   -1150.7186    188.78282    390.14971    51.289688    36822.805 
    5800    306.60984   -1152.1807    174.50171    395.98136    518.60742    36822.805 
    5900    301.22863   -1151.4723    180.48182    378.56126    702.23752    36822.805 
    6000    295.39259   -1164.3438    177.96026    337.02178    185.77233    36822.805 
    6100    298.91263   -1138.8301    181.99795    382.34349    313.19951    36822.805 
    6200    296.78781   -1128.4362    182.07501    383.29492    141.42075    36822.805 
    6300    296.28204   -1173.7952    178.33794    331.93299    223.75422    36822.805 
    6400    293.37429   -1196.8987    183.50644    300.97081    25.601415    36822.805 
    6500     293.2795    -1193.779    194.57121    314.73051    460.29954    36822.805 
    6600    291.95342   -1168.6251    188.01067    327.38288    291.08973    36822.805 
    6700    293.96011   -1179.8297    192.71575    329.87361    456.47882    36822.805 
    6800    295.72934   -1194.2094    201.16791    331.87257   -94.360201    36822.805 
    6900    305.45713    -1168.973    197.22668     396.7497    366.07201    36822.805 
    7000    303.37247   -1189.1998    186.83236    356.78898    368.22707    36822.805 
    7100    292.10959   -1191.6753    192.62156    309.64323    319.26184    36822.805 
    7200     297.9567   -1135.9165     197.5606    396.53705    372.49543    36822.805 
    7300    295.80111   -1181.7879    202.04849    345.49619    52.973076    36822.805 
    7400    308.38423   -1174.4796    194.33928    401.46955    279.50839    36822.805 
    7500    292.45756   -1103.5783    197.98918    404.66684    311.95263    36822.805 
    7600    297.50746   -1118.9196    209.41572    423.37646    656.04403    36822.805 
    7700    305.67484   -1088.7757    209.59147    490.28714    890.92149    36822.805 
    7800    293.32833   -1090.4322    219.04309    442.76798    717.73092    36822.805 
    7900    311.14207   -1131.5595    203.57005    465.97605    376.08448    36822.805 
    8000    307.40981   -1078.4722    205.19213    503.96427    708.59917    36822.805 
    8100    306.13933     -1131.16    210.15977    450.55215    755.89059    36822.805 
    8200     298.4771   -1125.5398    216.79984    428.48445    623.09749    36822.805 
    8300     296.4611   -1084.9814    211.26426    454.47528    387.16067    36822.805 
    8400    304.64574   -1132.7592    200.69511    432.79683    212.69412    36822.805 
    8500    294.58896   -1103.3215    217.41602    433.89948    155.93095    36822.805 
    8600    305.94791   -1126.3148    218.84713    463.22716    292.28147    36822.805 
    8700    300.46498   -1156.4499    225.93374    415.61427    169.42107    36822.805 
    8800    293.08276   -1139.4836    216.70636    390.27971    306.21405    36822.805 
    8900    300.78093   -1161.9692    228.36922    413.94602    340.07775    36822.805 
    9000    301.17538   -1182.9483    223.97955    390.34437     505.2045    36822.805 
    9100    297.11251   -1133.5834    222.11701    419.64449    98.676297    36822.805 
    9200    297.51157   -1130.3123    231.67401    434.26039    121.82708    36822.805 
    9300    294.99236   -1141.6304    223.67736    403.65921    43.183161    36822.805 
    9400    305.13108   -1160.0981     220.7097    427.64686    622.74621    36822.805 
    9500    298.91175   -1176.7506    215.27483    377.69599    406.07843    36822.805 
    9600    306.30403   -1183.4493    230.07278    418.91378    505.89604    36822.805 
    9700    300.07713   -1162.4294    217.63701    399.60039    763.36379    36822.805 
    9800     299.1178   -1170.9732    252.59793    421.71961    652.33554    36822.805 
    9900    306.58404   -1220.3935    218.14023    371.29152    482.46144    36822.805 
   10000    304.69733   -1190.1544    238.29046    413.22807    614.42214    36822.805 
   10100    298.17894   -1215.8262    224.37478    344.43719       377.82    36822.805 
   10200    290.39944   -1178.4862    235.70683    358.25586    265.28402    36822.805 
   10300     300.7686   -1176.3494    236.00484    407.14618    398.69894    36822.805 
   10400    304.16356   -1184.1699    239.27424    417.80504    664.09832    36822.805 
   10500    308.54801     -1170.32    231.45943    443.48312    772.04381    36822.805 
   10600    295.24519   -1196.5448    239.37134     365.5715    819.71511    36822.805 
   10700    298.76739   -1189.6027    246.71118    395.63345    1065.4976    36822.805 
   10800    302.13686   -1190.2105    242.78254     406.1928    672.59783    36822.805 
   10900    293.80691   -1187.4568    237.54239    366.38682    330.48425    36822.805 
   11000    294.52623   -1199.1313    229.04552    349.43813    819.60451    36822.805 
   11100    300.34811   -1156.0272    257.52387    447.10349    520.52912    36822.805 
   11200     299.8332    -1147.584    250.08106    445.79699     408.2898    36822.805 
   11300    301.30851   -1115.0541    244.49035    479.34585    742.39523    36822.805 
   11400    300.75273   -1116.6105    241.46664    472.27574    346.06327    36822.805 
   11500    295.18699   -1161.0635     240.1233    401.54403    321.42797    36822.805 
   11600     292.4134   -1171.3178    246.70199    385.44228    134.72749    36822.805 
   11700    294.08833   -1196.2622    258.48027     379.7801    298.63438    36822.805 
   11800    309.27615   -1170.5741     234.8364    449.86821    202.11457    36822.805 
   11900    304.94488    -1132.392    248.61739    482.42645    442.58297    36822.805 
   12000    303.01237   -1162.0055    249.32076    444.85838    49.399519    36822.805 
   12100    300.79654   -1156.5781      249.515    440.55282    298.08885    36822.805 
   12200    305.84511   -1181.1284    248.76433    437.87017    214.35826    36822.805 
   12300    309.49561   -1162.3077    254.64205    478.92346   -99.310952    36822.805 
   12400     310.5616    -1178.491    259.05304    471.92694    117.46209    36822.805 
   12500    290.80238    -1200.067    243.81591    346.58938   -519.69554    36822.805 
   12600    301.91075   -1231.8316    275.46169    396.23778    160.27344    36822.805 
   12700    296.22607   -1221.3495    246.24805    352.03798    393.53035    36822.805 
   12800    313.86137   -1170.9436    259.17883    494.38361     585.6586    36822.805 
   12900    293.24144   -1162.6533    273.86572    424.98025   -91.557124    36822.805 
   13000    305.33223    -1182.268    266.80663    452.47504    86.433566    36822.805 
   13100    296.53189   -1166.6554    259.66717    421.52134   -334.50868    36822.805 
   13200    299.94571   -1168.0526    263.63726    439.38872   -513.64352    36822.805 
   13300    303.66953   -1176.6798    251.33791    435.14544   -420.27974    36822.805 
   13400    301.35378   -1211.9773    270.86485    408.99995    48.973634    36822.805 
   13500    308.74112   -1218.0803    274.16746    439.29598    205.66893    36822.805 
   13600     294.9278   -1185.2206    262.06933    398.17173  -0.39145012    36822.805 
   13700    306.25101   -1174.5002    259.51014    457.06266    383.52589    36822.805 
   13800    308.51716   -1219.3032    280.67694    443.57926    546.17871    36822.805 
   13900    299.43716   -1257.8685    253.69356    337.35072    202.24903    36822.805 
   14000    297.24282   -1199.6158    263.92033    395.99915    280.83543    36822.805 
   14100    309.36718   -1236.2127    271.66261    421.46359    3.1597853    36822.805 
   14200    296.10271   -1224.7186    272.75076    374.61895    487.88167    36822.805 
   14300    302.51826   -1275.1357    272.00664    352.20035    672.84664    36822.805 
   14400    295.86568   -1192.7022     277.0793    409.90193    601.79078    36822.805 
   14500    295.64148   -1176.3301    278.19946    426.38977    510.51032    36822.805 
   14600    293.91552   -1180.5204    287.23635    423.50376    156.96125    36822.805 
   14700    309.28454   -1206.5591    273.12215    452.20654    209.73109    36822.805 
   14800     308.6066   -1237.2012    274.57593    419.98096    183.95751    36822.805 
   14900    302.49446    -1181.746    278.71644    452.19323    223.25127    36822.805 
   15000    294.47659   -1196.2404    292.57266     415.6338   -150.61106    36822.805 
   15100    297.48093    -1203.077    279.79789    409.48235   -167.88713    36822.805 
   15200    299.52063   -1198.6027    294.55571    437.85262    -278.2353    36822.805 
   15300    307.09077   -1218.7707    263.48846    420.53273    -288.9635    36822.805 
   15400    299.58686   -1184.4737    288.32541    446.04804   -274.50296    36822.805 
   15500    295.80719   -1256.3475    288.81062    357.72591   -639.26096    36822.805 
   15600      297.571   -1221.1523    284.44472    396.45738    18.305015    36822.805 
   15700    307.25798   -1245.8161    302.79642    433.54451   -261.27815    36822.805 
   15800    296.60558   -1230.5841    287.85218    386.10782   -138.74172    36822.805 
   15900    298.02515   -1198.3127    288.25862    425.14554   -54.696814    36822.805 
   16000    303.80449    -1245.561    287.98159    403.51252    490.20117    36822.805 
   16100    304.77436   -1249.7424    289.57085    405.26563    562.21375    36822.805 
   16200    297.17589   -1258.8027    287.50413    360.09619    234.22197    36822.805 
   16300    305.92653   -1254.5178    303.95465    420.03585    953.11655    36822.805 
   16400    299.12031   -1220.5975    278.31443    397.82299    775.49115    36822.805 
   16500     321.9647   -1208.1483    312.82217    547.12648    677.23684    36822.805 
   16600     293.2452   -1200.5943    280.77445    393.96486    370.01217    36822.805 
   16700    288.53546   -1242.2861    271.25836    321.65659     339.7503    36822.805 
   16800    303.77604   -1210.5244    310.83209    461.27215    428.36294    36822.805 
   16900    306.18394   -1215.6284    294.85477    450.97871    20.617445    36822.805 
   17000    302.13413   -1219.9128    287.28164    420.97733    319.84955    36822.805 
   17100    304.55609   -1240.1641    289.13758    413.43269    260.70253    36822.805 
   17200    297.00282   -1233.0095    281.27351    378.88341    110.38196    36822.805 
   17300    310.41082   -1227.5827    304.81372    467.92035    634.00475    36822.805 
   17400    305.18763   -1209.5556    288.92061    446.65371    356.08879    36822.805 
   17500    306.27624   -1240.4256    273.32089    405.06106    275.61324    36822.805 
   17600     300.3327   -1249.9781    304.97666    400.53637    342.66856    36822.805 
   17700    301.80205   -1262.0927    289.73414    379.76216    306.34133    36822.805 
   17800    303.80956   -1244.1664    295.05682    412.00504   -44.246974    36822.805 
   17900    307.75158   -1217.5564    296.21884    457.43797    173.85207    36822.805 
   18000     297.5903   -1237.6487    305.75934    401.36209    38.787352    36822.805 
   18100    313.65035   -1234.9601    294.34112    464.58397    844.54176    36822.805 
   18200    311.28965   -1281.3824    297.24492     410.4892    614.14615    36822.805 
   18300    287.26696   -1243.3571    324.53563    368.17971    673.51064    36822.805 
   18400    304.13967   -1247.8212    291.10181    405.87429    1151.2567    36822.805 
   18500    301.85524   -1251.4909    304.42174    405.28985     828.4582    36822.805 
   18600    301.09207   -1289.0305    307.51692    367.42634    859.82791    36822.805 
   18700    305.79747   -1211.3498    295.73235    454.40338    384.16722    36822.805 
   18800    303.51226   -1192.6413    318.21848    485.35991    180.50138    36822.805 
   18900    304.76333   -1232.1504    315.02801     448.2653   -296.21211    36822.805 
   19000    302.10332   -1241.3622    290.84242    402.95071   -949.21492    36822.805 
   19100    309.24415   -1225.3421    295.79119     455.9116    14.484911    36822.805 
   19200    297.40904   -1219.3356     341.4671    454.57083   -192.73226    36822.805 
   19300    304.21238    -1221.053    301.53862    443.40504    287.01509    36822.805 
   19400    293.58916   -1242.1392    325.68471     398.8712    635.07013    36822.805 
   19500    307.19064    -1249.552    285.77994    412.49036    134.43138    36822.805 
   19600    305.42959   -1247.5389    326.20229    447.03602    610.77335    36822.805 
   19700     314.8037   -1228.3581    307.64541    489.65748   -1.8015354    36822.805 
   19800    309.63922   -1213.0638     293.7314    467.90001    426.15568    36822.805 
   19900    297.17671    -1232.457    300.25093    399.19243    61.605369    36822.805 
   20000    303.67699   -1240.4552    295.84244    415.90798   -26.184171    36822.805 
   20100    292.44285   -1212.3293    319.29189    417.15263    425.82665    36822.805 
   20200    310.81392   -1250.8585    317.88149    459.51834     271.2585    36822.805 
   20300    293.84828   -1232.8919    309.43254    393.02724    176.72987    36822.805 
   20400    301.54071   -1239.8996    321.01024     432.0605    21.534939    36822.805 
   20500    301.84219   -1274.8786    318.60208    396.02398    337.10506    36822.805 
   20600    297.04619   -1218.8536    303.69503    415.65514    47.252477    36822.805 
   20700    301.94753   -1272.1032    308.50945    389.17873    221.70013    36822.805 
   20800    307.86293   -1251.5652    303.37588    431.08505     282.0471    36822.805 
   20900    304.81078   -1267.8354    308.88678    406.65173    513.91786    36822.805 
   21000    299.18214   -1267.6864    321.45469    394.15143     408.8144    36822.805 
   21100    293.31244   -1277.5112    312.50335    349.07809    181.74178    36822.805 
   21200    299.31387   -1248.8998    317.39156    409.46502    547.20652    36822.805 
   21300    303.25937   -1196.5608    324.47828    486.56725    531.16567    36822.805 
   21400    294.18588   -1258.5287    318.44202    377.91239    439.10982    36822.805 
   21500    294.22549    -1303.408    313.05241    327.82092   -302.05886    36822.805 
   21600    300.40636   -1274.8661    319.94323    390.94496     180.6397    36822.805 
   21700    300.62384    -1294.144     312.5874    365.28552    163.34982    36822.805 
   21800    288.40229   -1267.8362    335.01198    359.26347    247.86376    36822.805 
   21900    292.79462   -1266.2338    321.06057    366.59281    124.38069    36822.805 
   22000    281.92988     -1262.75    313.74002    314.08029   -249.26427    36822.805 
   22100    297.63442   -1263.5773     323.6505    393.52231    70.956903    36822.805 
   22200    300.59922   -1256.5168    310.65161    400.86659     76.09135    36822.805 
   22300    300.43923   -1289.4139    314.60725    371.20844   -109.24171    36822.805 
   22400    303.12177   -1273.2132    309.71354     394.5336    50.424861    36822.805 
   22500    307.01403   -1245.4041    334.50337    464.57043    184.46792    36822.805 
   22600    295.35617   -1271.5732    343.93773    395.60666    396.70944    36822.805 
   22700    306.42543   -1254.6924    329.23835    447.38013   -130.20306    36822.805 
   22800    299.25424   -1280.8174    321.89318    381.78197   -209.84226    36822.805 
   22900    306.77068   -1273.7527    328.29987    428.92816     90.61983    36822.805 
   23000     296.3593   -1297.8987    334.04618    363.88378    66.090068    36822.805 
   23100    297.21531   -1272.6156    332.05812    391.01395     154.4091    36822.805 
   23200    293.10536   -1299.4685     321.9924    335.68211    135.07544    36822.805 
   23300    291.57266   -1321.9039    321.22569    305.61322   -27.839236    36822.805 
   23400     295.0344   -1334.1377    331.06171     318.7246    537.65387    36822.805 
   23500    312.83328   -1301.4268    320.87595    420.99156    358.93361    36822.805 
   23600    293.84496   -1285.9603    335.69471     366.2061    741.28826    36822.805 
   23700     304.8595    -1291.542    328.73683    403.01338    726.81439    36822.805 
   23800    290.33742    -1310.813    340.69068    330.63511    580.80435    36822.805 
   23900    303.00379   -1284.4525     343.8918    416.94406    762.02731    36822.805 
   24000    297.11654   -1301.4559    325.12507    354.79808    406.94186    36822.805 
   24100    302.63961   -1262.2221    325.27741    418.92838    100.71956    36822.805 
   24200    291.62836   -1297.5268     321.9536    330.96782     156.4001    36822.805 
   24300    301.68475   -1315.3249    320.48422    356.75451    145.56323    36822.805 
   24400    300.22333   -1317.4133    308.52318    336.15769    249.38217    36822.805 
   24500    295.23218   -1315.6472    326.98306    334.02254   -101.10918    36822.805 
   24600    303.65551   -1307.8236    331.36128    383.96218    663.22924    36822.805 
   24700    296.97059   -1346.4155    340.43216     324.4917    31.519029    36822.805 
   24800    299.42361   -1323.1044    340.55628    358.91678    477.44413    36822.805 
   24900    296.10997   -1275.4286    332.43835     383.6291   -65.349454    36822.805 
   25000    301.46537   -1315.8675    332.18129    366.92616   -668.12873    36822.805 
   25100    293.74204   -1299.0418    333.13416    350.10297    -322.2662    36822.805 
   25200    305.19932   -1324.6512     323.8316    366.52146   -45.770572    36822.805 
   25300    297.10134   -1300.4304    340.30956    370.94001    475.57041    36822.805 
   25400    292.99776   -1355.6987    348.96026    305.93764    117.26599    36822.805 
   25500    292.20123   -1321.7103    322.58709    309.98436    160.08573    36822.805 
   25600    301.72666   -1325.4441    321.30694    347.64578    352.04843    36822.805 
   25700    296.36676   -1294.3283    329.52501    362.96643    147.20209    36822.805 
   25800    297.86653   -1270.9305    344.06296    407.62145    60.641052    36822.805 
   25900     298.7705   -1298.8968      359.553    399.19512   -58.879609    36822.805 
   26000    297.25242   -1337.7928    353.93543    347.88026    64.385238    36822.805 
   26100    297.18426   -1303.4633    338.07902      366.048    186.62611    36822.805 
   26200    289.50427   -1306.8697    342.76566    332.92067    9.3056926    36822.805 
   26300    310.23072   -1289.8265    324.96888    425.02488    93.067772    36822.805 
   26400    309.35967    -1264.311      335.762    457.43104     63.81611    36822.805 
   26500    313.64325   -1302.1387    318.34491    421.37733    403.79089    36822.805 
   26600    309.15981   -1266.3063    353.05069    471.82906     223.2093    36822.805 
   26700    307.55036   -1231.9817    347.36147    493.25386   -173.57696    36822.805 
   26800    305.23846   -1250.7677    343.65446    460.40309    512.58208    36822.805 
   26900    293.06797   -1263.6427    362.07089    411.41881    231.47021    36822.805 
   27000    289.08619   -1237.0567    344.35249     402.4475    373.07384    36822.805 
   27100    307.76579   -1254.4122    346.82154    471.24858    186.15789    36822.805 
   27200    301.68126   -1273.8274    342.39187    420.14401    388.76093    36822.805 
   27300    306.30556   -1329.1995     331.6961    374.79373    491.75833    36822.805 
   27400    304.86402   -1326.6077    335.61461    374.84577    294.68761    36822.805 
   27500    292.84453   -1273.8393    352.23697    390.38728   -159.39522    36822.805 
   27600    296.19864   -1327.4803    322.28644    321.82267   -360.72081    36822.805 
   27700    290.80678   -1355.3483    332.17022    279.68207   -171.10266    36822.805 
   27800    288.54508   -1335.0515    346.01218    303.68806   -613.00113    36822.805 
   27900    290.64613   -1307.4311    364.85888    359.56823   -160.67661    36822.805 
   28000    306.26319   -1304.5227    334.07367    401.65827     138.0496    36822.805 
   28100    300.09464   -1323.0581    342.37065    363.78381    4.5606324    36822.805 
   28200    294.30332   -1297.8176     358.7975    379.50512   -434.31324    36822.805 
   28300    291.04204    -1329.979    336.07675    310.01193   -731.43216    36822.805 
   28400    292.12372   -1314.6456    342.91889    337.03354   -531.79128    36822.805 
   28500    300.03412   -1335.9682    344.54045    352.77237   -238.39461    36822.805 
   28600     305.5133   -1335.7004    316.57993    349.62728    -391.2282    36822.805 
   28700    299.72065   -1306.3934     353.3764    389.77876    -16.80738    36822.805 
   28800    286.90275    -1322.457    348.71248    311.62496   -333.52722    36822.805 
   28900      291.552   -1309.4881    347.23491    343.94567    60.368538    36822.805 
   29000    302.26968   -1343.6998    343.73851    354.25448   -91.466741    36822.805 
   29100    296.52492   -1334.8158    352.51945    346.18199    124.14851    36822.805 
   29200    297.21946   -1358.6283    347.66025    320.62194   -220.34798    36822.805 
   29300    286.38939   -1359.0442    336.61914    260.64451   -7.2727534    36822.805 
   29400    300.75506   -1329.3875    356.29802    374.34058   -507.68026    36822.805 
   29500    299.67977   -1360.9659    340.92897    322.57564   -634.01456    36822.805 
   29600    293.33988   -1367.1833    352.05212    299.07771   -438.62727    36822.805 
   29700    300.62595   -1361.0959    333.23141    318.98709   -234.54145    36822.805 
   29800    307.36207   -1306.1319    343.51444    414.41304    -18.77051    36822.805 
   29900      294.439   -1327.7938    349.38622    340.72548    249.56331    36822.805 
   30000    291.72433   -1332.1787    362.49167    337.28387    391.04407    36822.805 
   30100    300.46439   -1340.8567    356.20406    361.47517    489.21665    36822.805 
   30200    295.39469   -1318.2196    359.35185      364.547    121.91802    36822.805 
   30300    307.55083   -1311.5011    345.05858    411.43367    641.11489    36822.805 
   30400    308.61956   -1309.7595    358.24483    431.14954    170.03357    36822.805 
   30500    293.19904   -1331.3568    357.84246    340.06358    200.50923    36822.805 
   30600    302.71202   -1311.4303    359.18962    403.95684    163.10238    36822.805 
   30700    287.18397   -1339.9686    347.53578    294.19655   -241.64788    36822.805 
   30800    299.05292   -1329.8865    362.40499    372.32264   -291.14953    36822.805 
   30900    296.49273   -1292.0781    364.53774    400.79382    94.298106    36822.805 
   31000     287.6489   -1325.4978    351.41955    314.63408    113.58553    36822.805 
   31100    295.16147   -1313.0865    355.96584    365.24916    -282.8654    36822.805 
   31200    305.94012   -1311.0652    349.52597     409.1207     248.5228    36822.805 
   31300    293.69645   -1347.4673    353.19165    321.53066    325.52609    36822.805 
   31400    306.84775    -1341.187    345.28255     378.8218    11.023775    36822.805 
   31500    300.78329   -1340.3376    344.82015    352.03907    102.28714    36822.805 
   31600     302.2674   -1325.5141    351.18788    379.87935   -249.89653    36822.805 
   31700    301.17503   -1296.6416    355.75826    408.42824   -104.50054    36822.805 
   31800    298.33691   -1313.5575    352.10359    375.14249    25.789649    36822.805 
   31900    307.15618   -1318.6914     361.8327    419.24937    151.73661    36822.805 
   32000    295.18867   -1305.3717     349.2986    366.41861     168.4437    36822.805 
   32100    298.61275   -1331.9026    352.13988    358.06936     60.78105    36822.805 
   32200    305.57445   -1314.7919    361.36866    415.59837    97.061011    36822.805 
   32300    299.28846   -1324.6822    353.81521    369.99247   -111.16738    36822.805 
   32400    299.12867   -1283.1674    341.49642    398.47261    -436.7365    36822.805 
   32500    296.62109   -1270.6972    362.20165    420.41359   -221.87392    36822.805 
   32600    307.84755     -1290.97    345.70958    433.94511   -187.51914    36822.805 
   32700    303.32749   -1293.0938    361.17837     427.0395   -138.89018    36822.805 
   32800    312.80109   -1317.6116    349.04533    432.83185    -131.7063    36822.805 
   32900    297.58596   -1371.6374    353.12265    314.71726    130.82282    36822.805 
   33000    293.95627   -1326.8675    345.17273    335.27564   -2.2244348    36822.805 
   33100     297.3402   -1306.9382     360.2881    385.48086    379.44726    36822.805 
   33200    295.19816   -1304.5296    362.59575    380.60044    337.06125    36822.805 
   33300    292.05925   -1294.5746    359.96304    373.85984    636.69334    36822.805 
   33400      307.948   -1349.3543     351.2413    381.54257   -284.37489    36822.805 
   33500    302.04857   -1307.7812     353.1958    398.63977   -227.00419    36822.805 
   33600    296.02334   -1311.5135    353.54852    368.26621   -606.33923    36822.805 
   33700    298.27234   -1294.7631     370.0253    411.56923   -223.57054    36822.805 
   33800    302.32075   -1304.9643    360.84218    410.32248     26.26025    36822.805 
   33900    298.59002   -1302.9813    345.48503    380.23399   -48.418592    36822.805 
   34000     309.7184    -1296.577    336.56577    427.57601   -259.44497    36822.805 
   34100    281.31978   -1318.6328    359.16949    300.89356   -403.63384    36822.805 
   34200    305.56653     -1301.56    366.85072    434.27684   -175.16975    36822.805 
   34300    297.21069   -1335.5855    353.02103    348.98625    259.26038    36822.805 
   34400    304.22582   -1328.5157      365.786    400.24991   -49.345706    36822.805 
   34500    291.89746   -1311.1411    376.96919    373.57463    76.871301    36822.805 
   34600    303.09466   -1320.2469    368.53675    406.20168   -43.468259    36822.805 
   34700    302.68356   -1314.2267    374.42131    416.26469     73.72872    36822.805 
   34800    305.83356   -1345.5749    367.09639    391.70399   -15.446379    36822.805 
   34900     304.5834   -1317.5484    382.66261    429.69584    456.59495    36822.805 
   35000    299.08503    -1310.994    356.75405    385.70811    401.78441    36822.805 
   35100    297.09473   -1309.5572    353.67347    375.14747   -152.38088    36822.805 
   35200    290.78963   -1289.6928    356.69337    369.78396   -38.942673    36822.805 
   35300    298.50869    -1341.352    363.97602    359.98999    227.95166    36822.805 
   35400    302.26843   -1357.4695    333.23591    329.97662   -616.53343    36822.805 
   35500    294.04155   -1268.6553     370.9248    419.62195   -69.620929    36822.805 
   35600    300.20315   -1321.8433    344.88146    367.99552   -241.71331    36822.805 
   35700    293.51468   -1283.3492    333.04473    364.68752   -8.5011239    36822.805 
   35800    285.26444   -1302.5929    353.75858    329.19533   -226.49313    36822.805 
   35900    294.94326   -1323.3775    340.92352     338.9383   -193.11297    36822.805 
   36000    305.13774   -1313.9173    335.79286    388.94068    373.20973    36822.805 
   36100    297.11222   -1306.3965    356.58048    381.29353    594.23777    36822.805 
   36200    311.66744   -1247.6664    365.19781    513.85059     554.7539    36822.805 
   36300    292.94327   -1297.4366     327.9646    342.95998    761.43149    36822.805 
   36400    313.58131    -1276.705    368.52399    496.71267    1097.5628    36822.805 
   36500     295.4625   -1307.8899    368.14854     383.9772    591.31217    36822.805 
   36600    310.76258   -1291.1493    377.71528    478.83129    664.53229    36822.805 
   36700    308.53835   -1324.4801    365.27905    423.09938    320.77376    36822.805 
   36800     301.2483   -1302.8893    362.92581    409.67632    889.90365    36822.805 
   36900     297.4966    -1315.559    352.62213    369.89473     237.8884    36822.805 
   37000    303.25794   -1266.5714     367.1869    459.25883    114.62106    36822.805 
   37100    289.29765   -1274.1592    357.01437    378.95424    246.70001    36822.805 
   37200     301.2224   -1288.2342    363.72897    425.01854    507.12486    36822.805 
   37300    292.15579   -1266.8779    376.82994    418.85597   -443.40608    36822.805 
   37400    289.57751   -1272.3901    387.24301    412.20579   -362.07019    36822.805 
   37500    301.29695   -1258.0284    393.78722    485.61657     -244.035    36822.805 
   37600    298.56014   -1286.3992    377.30124    428.49849    72.947773    36822.805 
   37700    289.91624   -1292.1917    372.37362    379.05234   -336.34275    36822.805 
   37800    294.95498   -1276.1035    391.98016    437.32141   -451.07244    36822.805 
   37900    294.63853   -1305.3828    344.02772    358.67193   -562.14304    36822.805 
   38000    297.43011   -1309.1483    368.46047    391.84594   -624.58901    36822.805 
   38100    300.49172   -1272.8783     375.1538     448.5257   -356.25287    36822.805 
   38200    308.36899   -1281.1184    369.80755    470.23081   -454.13688    36822.805 
   38300    296.38686   -1286.1556    364.33234    406.03653   -77.848268    36822.805 
   38400    308.70499   -1326.2381    376.47097    433.27979    95.706291    36822.805 
   38500    302.11431   -1293.2351     365.6396    425.92418    330.44496    36822.805 
   38600    309.06069   -1330.1519    373.20657    427.69528    491.00197    36822.805 
   38700    305.77609   -1357.2232    337.36617    350.06802    579.84125    36822.805 
   38800    300.09639   -1346.8395    378.42964    376.06922    596.91824    36822.805 
   38900    303.88027   -1334.1969     365.6986    392.93315    703.55959    36822.805 
   39000    304.18677   -1338.9387    365.06523    388.93117   -253.44011    36822.805 
   39100    294.45995   -1334.7678    387.12045    371.57959    195.72958    36822.805 
   39200     297.0042   -1305.6737    367.94845    392.90037    27.122649    36822.805 
   39300    309.15004   -1302.0259    391.69397    474.70895    537.56124    36822.805 
   39400    294.89814     -1306.97    383.15892    397.37905    604.70226    36822.805 
   39500    301.39036   -1314.1447    371.15401    407.28555    785.17549    36822.805 
   39600    304.78172    -1321.865    369.15334    412.75842    843.55789    36822.805 
   39700     308.0235   -1343.0322    350.88161    387.84322    1032.1049    36822.805 
   39800    295.31803   -1327.9746    377.58244    372.67914    1069.9076    36822.805 
   39900    304.21323   -1344.3608    371.64368     390.2061    279.20581    36822.805 
   40000    286.87566   -1348.9163    349.17274    285.50463    652.67619    36822.805 
   40100    292.89866   -1318.8491    397.27435    390.65743    603.42436    36822.805 
   40200    302.96658   -1320.2889    370.80034     407.8494    469.37698    36822.805 
   40300    291.84718   -1352.1134     376.3475    331.75545    81.346487    36822.805 
   40400    309.47813   -1353.6065    363.38484    396.28912    1.2839207    36822.805 
   40500    288.77318   -1384.4372    377.03115    286.34327   -463.97699    36822.805 
   40600    298.24552   -1340.9908    369.74142     364.9375   -193.11691    36822.805 
   40700    288.20734   -1351.7604    392.70039    332.15423      70.6736    36822.805 
   40800    299.51429   -1359.3397    366.32025    348.85169    175.54675    36822.805 
   40900    291.57118   -1354.2495    367.86183    319.89711   -234.35079    36822.805 
   41000    287.65956   -1348.1984    367.34883    307.91062    -941.9215    36822.805 
   41100    309.67985   -1308.8308    350.65176    429.23542   -186.79629    36822.805 
   41200    292.25226   -1327.3517     372.0752    354.05972   -517.63146    36822.805 
   41300    296.08572   -1323.2817    354.25661    357.48558    90.077481    36822.805 
   41400    301.08422   -1395.0868    348.74415     302.5621   -342.78068    36822.805 
   41500    296.03736   -1372.3589    348.94357    302.87872    215.92209    36822.805 
   41600    305.59842   -1330.8239    360.21988    398.52506    143.57695    36822.805 
   41700    294.75206   -1341.1555    368.83782    348.21791    450.37461    36822.805 
   41800    310.76814   -1345.8865    367.27686    413.68062    152.14342    36822.805 
   41900    302.28127   -1351.9154    379.32751    381.67981   -149.71625    36822.805 
   42000    303.89645   -1350.7182    359.42683    370.21262    356.75768    36822.805 
   42100    311.80977   -1344.8805     375.7796    427.85595    21.843937    36822.805 
   42200    290.85993   -1324.1674    382.81971    361.75058    123.19729    36822.805 
   42300    303.70104   -1364.3914    379.46483    375.70197   -126.27869    36822.805 
   42400     299.9824   -1358.8574    362.72235    347.83334   -19.497315    36822.805 
   42500    301.09469    -1366.099    359.64864    342.50127    412.75637    36822.805 
   42600    296.61769   -1366.6458    378.68996    340.93819    571.85394    36822.805 
   42700    302.26916   -1349.5324     364.7973    369.47836    176.84158    36822.805 
   42800    303.20784   -1349.4777    385.63227    394.57349    157.68367    36822.805 
   42900    295.83232   -1401.3103    378.83953    302.90459    134.99932    36822.805 
   43000    308.47547   -1374.6527    369.98107    377.34711    433.89729    36822.805 
   43100    291.99384    -1384.661    363.41773    286.93516    189.15939    36822.805 
   43200    303.18291   -1368.1122    372.44622    362.64125     256.0966    36822.805 
   43300    315.24103   -1373.2523    386.06391    425.14103    564.58114    36822.805 
   43400    298.64891   -1392.1781    375.33596    321.15197    416.67609    36822.805 
   43500    296.40098   -1422.0012    376.53492    282.45677    369.05411    36822.805 
   43600    293.27808   -1404.2883    350.25685     259.9005    14.629087    36822.805 
   43700    301.75176   -1395.2137    385.69987    342.38157    161.56493    36822.805 
   43800     290.1798   -1408.1524     380.9444     272.8432    244.71625    36822.805 
   43900    295.74652   -1390.0096      396.682    331.66339    355.74323    36822.805 
   44000    295.92077   -1369.2237    369.94911    326.49707   -8.6600632    36822.805 
   44100     294.3824   -1342.0423    386.66331    363.50049    59.665136    36822.805 
   44200    301.55091   -1357.2201    379.02152    372.79704    174.62108    36822.805 
   44300    292.35724   -1345.0749    409.59805    374.32959   -549.45589    36822.805 
   44400    311.74843    -1331.587     371.1738    436.26888   -165.26511    36822.805 
   44500    297.49739   -1368.3023    387.39771    351.93057    103.67368    36822.805 
   44600    302.58902   -1416.5539    377.25832    316.35089       140.15    36822.805 
   44700    296.03723   -1413.8096    385.25933    297.74318    170.59963    36822.805 
   44800    309.82568   -1390.0542    363.62428    361.63792    1015.2481    36822.805 
   44900    301.26989    -1334.138    379.67058    395.26914    800.99258    36822.805 
   45000    295.44265   -1375.1343    365.88328     314.3786    625.19124    36822.805 
   45100    293.82596   -1344.2271    368.29699    340.45649    327.62608    36822.805 
   45200    305.08725   -1313.4546    361.45311    414.83742    576.99727    36822.805 
   45300    300.59694   -1341.8484    389.68117    394.55444    181.13534    36822.805 
   45400    306.46408   -1334.2919    384.83091     423.5464    185.79603    36822.805 
   45500    306.83244    -1347.975    374.76023    401.44292    29.738663    36822.805 
   45600     291.7822   -1401.3546    368.69785    274.57344   -325.11269    36822.805 
   45700    303.99761   -1393.9716    364.88322     332.8688   -664.53245    36822.805 
   45800    299.36675   -1356.5688    380.07095     364.7124   -125.78823    36822.805 
   45900    304.67442   -1362.5018    368.64551    371.13313   -426.97535    36822.805 
   46000    306.17361   -1434.3215    376.59797    313.98247   -198.49135    36822.805 
   46100     309.8238   -1351.2921    370.60354    407.37088    59.827223    36822.805 
   46200    297.54763   -1374.6227    394.14994    352.58755   -9.0953685    36822.805 
   46300    293.50495   -1324.8718    380.55301    370.62966   -14.630639    36822.805 
   46400    297.10849   -1315.3691    377.11963    392.84339   -216.40516    36822.805 
   46500    301.59046   -1331.9125    385.54133    404.80156    24.816358    36822.805 
   46600    296.14668   -1354.5085    383.54336    355.81863    241.18888    36822.805 
   46700    292.98588    -1347.284    389.88233    355.22117    375.10619    36822.805 
   46800    304.05897   -1325.5246    373.33437     410.0418    300.80292    36822.805 
   46900    299.46859   -1337.8631    381.54581     385.3492   -409.02242    36822.805 
   47000     299.4793   -1303.3024    378.15613    416.56814   -357.73032    36822.805 
   47100    297.98789   -1305.3571    378.33817    408.01378    100.20951    36822.805 
   47200    294.48169   -1332.9399    389.17925     375.5637   -302.82588    36822.805 
   47300    294.77886   -1337.6319    382.60833    365.63213   -97.899885    36822.805 
   47400    301.62908   -1370.6573    390.97467    371.66313    48.330478    36822.805 
   47500    283.59398   -1367.5996    378.25953    281.20562   -111.94239    36822.805 
   47600    292.48451   -1337.6078    370.60234    343.37117   -346.26793    36822.805 
   47700    311.92229   -1323.9099    374.80668    448.35773    750.74905    36822.805 
   47800    306.07679   -1341.2876    373.91155    403.89617    223.98941    36822.805 
   47900     291.4942   -1375.8513    365.95082     296.0395   -142.52693    36822.805 
   48000    300.76023   -1397.4213    364.77781    314.80976    333.25267    36822.805 
   48100    294.31806   -1337.4143    392.87534    374.05233    552.93224    36822.805 
   48200    304.04984   -1365.5637    390.72401    387.35144    364.95538    36822.805 
   48300    306.26015   -1372.9366    371.79967     370.9568    279.71493    36822.805 
   48400     299.8093   -1371.6316    393.03396    364.59522    78.270248    36822.805 
   48500    301.86364   -1384.5888    405.75275    373.56057    209.42905    36822.805 
   48600    296.72441   -1354.5759    408.65835    383.45457    61.145404    36822.805 
   48700    304.25228   -1360.1589    384.14756    387.08684    590.43528    36822.805 
   48800    297.05076   -1373.3539    368.12149    325.60179   -2.9130236    36822.805 
   48900    289.35682   -1362.4887     364.3212    298.19664   -197.64393    36822.805 
   49000    300.10501   -1357.7337    386.08694    372.87093    351.16341    36822.805 
   49100     300.7918   -1332.8166    371.73876     386.5168    206.71217    36822.805 
   49200    298.09118   -1347.7679    366.96483    354.69239    433.05616    36822.805 
   49300    290.61973   -1380.8511    391.03539    312.20644    178.50011    36822.805 
   49400    296.81664   -1353.5373    367.76536    344.01336   -73.397443    36822.805 
   49500    290.43162   -1359.2209    378.07052    320.02897   -390.09228    36822.805 
   49600    303.13194   -1342.8356    377.52904    392.77226   -577.31959    36822.805 
   49700    299.31761   -1371.3353    370.15572    339.81052   -376.46766    36822.805 
   49800    288.54986   -1392.9242    387.41815    287.24274   -381.07756    36822.805 
   49900    298.41205   -1383.2519    390.73938    344.42042   -163.52353    36822.805 
   50000    304.57018   -1337.2369    373.96608    401.25152    240.28776    36822.805 
   50100    301.44618   -1332.8888    378.95771    396.59531   -21.522543    36822.805 
   50200    294.70059   -1348.7402    398.86961    370.43446   -632.95564    36822.805 
   50300    304.43372   -1381.6067    385.45117     367.7555   -148.70456    36822.805 
   50400    298.21376   -1349.3123    405.89075      392.623   -713.22818    36822.805 
   50500    306.32345   -1311.6768    371.81604    432.51652   -186.38238    36822.805 
   50600    299.76703   -1336.1423    390.44427    397.30548     583.2763    36822.805 
   50700     297.3904   -1382.1382    420.17884    370.39645   -63.232462    36822.805 
   50800    293.51191   -1385.3645    406.88782    336.50294    391.09249    36822.805 
   50900    291.23477   -1348.3613     416.2525    372.66889   -148.66783    36822.805 
   51000    302.08917   -1368.7505    378.13836    362.79493    441.27968    36822.805 
   51100    300.32707   -1386.5215    383.51385    342.50497    102.56839    36822.805 
   51200    290.96695   -1348.2354    390.94537    346.28768    781.06266    36822.805 
   51300    287.89431   -1379.0064    393.01475     303.8202    291.84021    36822.805 
   51400    303.26586   -1383.1517    394.44789    369.97502    114.02897    36822.805 
   51500    298.97719   -1372.8726     379.7784    346.37075    208.51728    36822.805 
   51600    293.25334   -1407.9455    353.83569     259.7114    90.846279    36822.805 
   51700    302.28085   -1370.1912    388.52813    372.60277    437.47129    36822.805 
   51800    294.28845   -1374.5335    406.65509    350.58017    539.96593    36822.805 
   51900    295.79637   -1389.6608    398.94028    334.49379    318.36286    36822.805 
   52000    292.34591    -1380.079    410.15344    339.83013    355.63139    36822.805 
   52100    294.61208   -1363.3596    390.98836    347.53729    101.82131    36822.805 
   52200    291.07029   -1388.9042    390.77662    305.91312   -55.262352    36822.805 
   52300    308.51058   -1350.6469     402.0467    433.57584    528.36452    36822.805 
   52400    299.80909   -1365.1948    359.17785      337.175   -11.662585    36822.805 
   52500    293.45818   -1386.9379    387.80595    315.60696     39.70614    36822.805 
   52600    292.24708   -1368.7538    378.71623    319.27536     757.2461    36822.805 
   52700     302.8227   -1358.6999    383.04439    381.03786    435.93792    36822.805 
   52800    294.49934   -1315.9982    384.31035    387.71561    251.24703    36822.805 
   52900    301.34956   -1378.4934    386.25538    357.85546    274.47862    36822.805 
   53000    306.98889   -1400.3156    386.47322    361.51617    523.67148    36822.805 
   53100    307.41078   -1376.7575     390.7167    391.20789    475.95709    36822.805 
   53200    299.42267   -1375.8402    400.33035    365.95087    205.23621    36822.805 
   53300     307.4412   -1352.1341    408.90223    434.15318    597.56112    36822.805 
   53400    294.61612   -1365.3248     389.8215    344.42335    94.512872    36822.805 
   53500    291.58821   -1382.3599    376.62424    300.62546    25.856794    36822.805 
   53600    290.44477   -1356.7683    418.96705    363.43704    235.83752    36822.805 
   53700    308.96158   -1374.4954    405.36875    415.06995   -162.06682    36822.805 
   53800    298.44389   -1395.7877    402.28283    343.57076   -228.02454    36822.805 
   53900    298.51099   -1385.9023    413.55464    365.02857   -693.11915    36822.805 
   54000    293.31731   -1368.0371    413.95841    360.02908   -590.02079    36822.805 
   54100    306.15348   -1387.1128       391.69    376.19304   -269.02523    36822.805 
   54200    304.38578   -1390.4052    382.62406    355.91512    290.75724    36822.805 
   54300    304.18312   -1426.8751    389.72912    325.64233    365.54387    36822.805 
   54400    295.42644    -1389.046    390.67476    325.18577    107.91742    36822.805 
   54500    297.82919   -1389.5203     380.7781    325.57943    711.52112    36822.805 
   54600    300.27352   -1419.5114     382.4434    308.20464    279.07273    36822.805 
   54700    310.77234   -1393.3159     399.3936    398.38677     247.4847    36822.805 
   54800    304.48511   -1413.4744    402.63609     353.3029    715.61307    36822.805 
   54900    305.97924   -1412.4571    396.56203    354.94013   -95.787728    36822.805 
   55000    308.31041   -1409.9713    397.82008    369.12797      53.3849    36822.805 
   55100    289.86666   -1459.7939    385.97953    224.83391   -69.451729    36822.805 
   55200    308.69055   -1396.1388    395.57786    382.42128    497.53445    36822.805 
   55300    291.74788   -1385.6531    400.79436    322.21776   -282.60887    36822.805 
   55400    312.26134   -1398.8296    408.49358    408.64396   -151.27213    36822.805 
   55500    298.74451     -1431.98    387.63749    294.07992   -373.05387    36822.805 
   55600    303.16779   -1402.1243    411.93317    368.04832   0.45632454    36822.805 
   55700    302.97436   -1416.4263    399.43149    340.37805    644.77136    36822.805 
   55800    296.19337   -1411.5573    400.65556    316.09115    146.79271    36822.805 
   55900    296.04392   -1424.7604    405.16481    306.72783    43.653687    36822.805 
   56000    299.68721   -1390.1854    384.28959    336.75013    565.56623    36822.805 
   56100    305.31181    -1388.309    406.72144    386.25745    254.46996    36822.805 
   56200    301.42849   -1364.1821    429.47271    415.73776    134.90807    36822.805 
   56300    305.18951   -1354.9259    424.09091    436.46212    187.26675    36822.805 
   56400    305.85599   -1399.8179    405.05658    375.52166    58.985574    36822.805 
   56500    307.17902   -1413.2727    393.61767    356.55535    153.85565    36822.805 
   56600    300.48054   -1392.0522    383.96168    338.10958    646.89862    36822.805 
   56700     293.8743   -1387.7709    403.91936    332.75164    425.19939    36822.805 
   56800    301.41234   -1385.1673    393.15589    358.36339    361.90704    36822.805 
   56900    281.24257   -1397.9191    406.10045    268.19233    -367.2611    36822.805 
   57000    297.69509    -1390.909    408.39096    351.20287   -326.84661    36822.805 
   57100    294.51198   -1412.1884    385.17934    292.45096   -539.10636    36822.805 
   57200    303.34249   -1430.3384    395.79869    324.48246   -461.00374    36822.805 
   57300    301.64174   -1418.8461    408.82869    341.38513   -63.849245    36822.805 
   57400    300.76141   -1383.5424    379.21725    343.13337   -169.90043    36822.805 
   57500    296.97189   -1393.8013    403.41384    340.09338    82.568948    36822.805 
   57600    308.39138   -1371.9481    410.92413    420.61797    434.22002    36822.805 
   57700    305.07593   -1392.7853    418.32156    392.32449   -253.35496    36822.805 
   57800    288.94997   -1411.8014     409.8087     292.5487     -192.902    36822.805 
   57900    293.11825   -1393.5759    421.52554    341.16552   -130.69831    36822.805 
   58000    297.35074   -1386.5126    403.00505    348.67057   -523.79537    36822.805 
   58100    300.90558   -1406.2942    399.08611    340.89633    -210.3344    36822.805 
   58200    288.72854    -1407.953    399.63225    285.22858   -174.21621    36822.805 
   58300    297.89625   -1423.6177    403.71988    314.72434   -296.21809    36822.805 
   58400    303.17306   -1413.9224    432.42708    376.76773    250.05164    36822.805 
   58500    296.40956   -1444.8032     377.6278    260.78611   -37.064578    36822.805 
   58600     297.4122   -1391.9241    407.41599    347.94542     277.0529    36822.805 
   58700    300.07075   -1437.0482     407.6272    314.94322    33.395367    36822.805 
   58800    292.15691   -1382.2311      385.444    312.12189    515.83138    36822.805 
   58900    296.50859   -1409.7581    420.64482    339.29185   -525.73959    36822.805 
   59000    310.38828   -1405.7308    405.04977    389.90732   -114.67644    36822.805 
   59100    317.14254   -1440.0036    375.95297    356.79791   -200.17256    36822.805 
   59200    296.78026   -1409.2563    411.50816    331.87414   -835.94559    36822.805 
   59300     306.3131    -1401.043    414.63854    385.92646   -639.50105    36822.805 
   59400    307.13937   -1395.3032    395.49316    376.22274    66.183847    36822.805 
   59500    293.28158   -1417.9779    417.03298    313.00277    195.31551    36822.805 
   59600    309.38144     -1396.98    430.77837    419.87597    110.02908    36822.805 
   59700    303.17238   -1406.5601    407.47773    359.17767    261.00846    36822.805 
   59800    286.75789   -1450.4379    386.95382    221.23644    192.61264    36822.805 
   59900    305.30897   -1424.0133    425.01727    368.83627     799.4107    36822.805 
   60000    303.16726   -1475.0979    390.72125    273.86048    646.29478    36822.805 
   60100    293.08727   -1394.8672    439.96566    358.17559    801.07635    36822.805 
   60200    298.67851   -1453.5941    414.58692    299.11959     793.6345    36822.805 
   60300     316.2792   -1417.8855    428.93518     428.0303    1155.4371    36822.805 
   60400    300.01943    -1387.138    394.45401    351.45033    1399.1467    36822.805 
   60500    308.81136   -1401.9702    416.25145    397.80482    1099.7788    36822.805 
   60600    299.50565   -1446.3927     402.5863    298.02607     616.6074    36822.805 
   60700    308.92049   -1441.7188    400.66531    342.95902    309.69793    36822.805 
   60800    291.42183   -1414.4149    432.72005    323.92083   -12.454891    36822.805 
   60900    297.21506   -1417.3072    404.30025    318.56327    265.81387    36822.805 
   61000    304.48518   -1404.9473      412.809    372.00323    189.25298    36822.805 
   61100     299.7409   -1376.1083    429.24122    396.01935    362.31657    36822.805 
   61200    297.57596   -1379.9019    425.54853    378.83376   -1240.1124    36822.805 
   61300     303.2526    -1390.773    406.71094    374.55737   -529.44281    36822.805 
   61400    312.49386   -1437.8043    422.65523    384.87266   -639.71226    36822.805 
   61500    305.79064    -1422.885    397.32564    344.43085   -598.09865    36822.805 
   61600    297.74225   -1467.8641    394.78987    260.85797   -639.88563    36822.805 
   61700    306.44335   -1445.8098    401.44248    328.54713   -125.88477    36822.805 
   61800    306.41853   -1447.6374    408.76976    333.93561    39.850113    36822.805 
   61900    296.66981    -1469.493    397.52355    257.15805   -211.06759    36822.805 
   62000     305.1816   -1452.5611    404.54504    319.24561    -324.3155    36822.805 
   62100    303.05393   -1446.5624    407.38548    318.55242   -620.50125    36822.805 
   62200    291.61753   -1433.4476     414.4406     287.4855   -275.80113    36822.805 
   62300    312.98396   -1443.0257    407.97247    367.16416   -254.67187    36822.805 
   62400    295.64318   -1430.1786    407.48635    301.83578   -231.63397    36822.805 
   62500    302.11782   -1465.4288    438.88021    326.98682   -294.65542    36822.805 
   62600     301.0828   -1481.7379    421.15365    288.31414   -155.64767    36822.805 
   62700    301.45674   -1445.5895    394.88842    299.87258    267.55453    36822.805 
   62800    304.44892    -1405.141    447.98389    406.82194    218.96943    36822.805 
   62900    290.62092   -1395.8731    414.29818    320.45256    374.78794    36822.805 
   63000    307.13459   -1418.4506    426.18504    383.74572    300.03824    36822.805 
   63100    299.41169   -1409.6556    431.34082    363.09672    512.82661    36822.805 
   63200    307.28205   -1418.5657    435.16177    393.26801   -182.02138    36822.805 
   63300    298.22187   -1416.2435    440.00596    359.84345   -6.6858397    36822.805 
   63400    302.53434   -1405.7321    434.77217    384.44153   -420.06103    36822.805 
   63500    295.31567   -1394.3863    432.92207    361.59647   -17.642357    36822.805 
   63600     298.2567   -1457.5124    409.86355    288.58815   -566.91936    36822.805 
   63700    296.62075   -1443.3103     404.5615    290.15887   -409.88795    36822.805 
   63800    298.80548   -1407.2197    414.73926    346.21514   -360.25523    36822.805 
   63900    307.74988   -1434.8498    419.94222    363.86032   -65.004057    36822.805 
   64000    302.72775   -1448.5189    421.03577    328.78489   -437.95266    36822.805 
   64100    301.13337   -1387.6778    421.26748    382.71463   -352.88344    36822.805 
   64200    295.76646   -1468.0328    419.25543    276.30295    190.17564    36822.805 
   64300    295.55888   -1420.3421    437.72941     341.5377   -95.429153    36822.805 
   64400    308.77665   -1388.7581     435.3224    429.93232    334.71285    36822.805 
   64500    291.53104    -1449.908     400.5491    256.74611   -445.63692    36822.805 
   64600    315.62449   -1430.6002     430.8235    414.27076   -528.44975    36822.805 
   64700    297.71567   -1431.0716    430.68714    333.42861   -578.13233    36822.805 
   64800    295.43236    -1416.031    432.67172    340.22425   -228.40226    36822.805 
   64900    297.64543   -1426.7955    436.00706    342.70996    57.660585    36822.805 
   65000    309.11305   -1456.9462    405.90252    333.83151   -152.10497    36822.805 
   65100    292.05722   -1436.6776    416.39154     288.1763   -339.73355    36822.805 
   65200    299.48052   -1440.0123    423.11472    324.82236   -120.65159    36822.805 
   65300    301.37517   -1424.6719    405.45687    330.99323    54.341866    36822.805 
   65400    298.84324   -1445.4933    432.02759    325.39909     110.9976    36822.805 
   65500    289.70261   -1426.9602    447.08364    318.03678    702.60242    36822.805 
   65600    293.03753   -1479.0514    427.97799     261.7809    413.01009    36822.805 
   65700    298.90499   -1421.9418    445.60245    362.80206    101.08091    36822.805 
   65800    297.61188   -1412.5779    409.24308    330.01325    62.366907    36822.805 
   65900    293.98567   -1399.7742    414.06701    331.39494   -344.07288    36822.805 
   66000    293.10044   -1388.5586    436.67139    361.24894   -425.93418    36822.805 
   66100     298.3218     -1343.21      437.624     430.9426   -418.88547    36822.805 
   66200    307.10862   -1402.0837    425.54591    399.35715    223.60682    36822.805 
   66300    286.70057   -1396.9858       431.98     319.4579   -444.02505    36822.805 
   66400    296.88526   -1423.5206    413.93849    320.51066    25.381218    36822.805 
   66500    304.86893   -1410.9473    421.28012    376.19364   -118.87133    36822.805 
   66600    299.60084   -1411.1279    417.03588    348.16696   -360.01569    36822.805 
   66700     302.8541   -1448.6215    417.46376    325.67637    174.58621    36822.805 
   66800    298.75998   -1451.2982    434.03793    321.23152     209.2558    36822.805 
   66900    296.36157   -1433.8828    452.89317    346.75692   -375.21707    36822.805 
   67000    299.44584   -1413.8163    415.28719    343.03543   -66.326701    36822.805 
   67100    303.39716   -1428.8409    410.34221    340.76834   -208.74654    36822.805 
   67200      295.477   -1457.9897    418.84699    284.64079   -354.18203    36822.805 
   67300     307.0382   -1421.4015    430.13758     384.3156   -273.68108    36822.805 
   67400    295.24878   -1429.1585    431.42888     325.0314   -378.25834    36822.805 
   67500    309.67988   -1449.4072    438.26584    376.27325    173.45381    36822.805 
   67600    297.15695   -1434.6897    400.13718    296.75745    397.42648    36822.805 
   67700    297.28884   -1435.8818    399.67153    295.69052    -242.7936    36822.805 
   67800    300.22939   -1450.4151    428.54087    323.20067    33.450249    36822.805 
   67900    311.10101    -1425.774    408.10185    376.10934    129.70094    36822.805 
   68000    299.67274   -1434.7271     447.2672    355.12119    119.01681    36822.805 
   68100    287.48156   -1471.9981    419.09615    235.06073   -324.51983    36822.805 
   68200    300.93768   -1464.2271    430.75196    314.77306   -293.22342    36822.805 
   68300    294.63558   -1479.7889    410.84514    251.07006    163.72109    36822.805 
   68400    295.40928   -1472.8435    438.55121    289.18783    166.35747    36822.805 
   68500    295.21146   -1475.6438    399.08333    246.03337   -196.29078    36822.805 
   68600    297.02882   -1438.2019     420.7714    313.30539   -219.49008    36822.805 
   68700    298.12601   -1457.1328    389.13571    267.65442   -475.88005    36822.805 
   68800    300.66155   -1465.4429    427.27969    308.84792   -70.601459    36822.805 
   68900    301.93489   -1391.0359    444.69635    406.37631    186.74799    36822.805 
   69000    309.19466   -1402.7465    437.54575    420.04003    680.07005    36822.805 
   69100    313.89532    -1413.931    448.19366    440.56313    489.41429    36822.805 
   69200    295.22137    -1419.328    401.34751    304.65772   -11.433926    36822.805 
   69300    304.07247   -1423.0736    434.35905    373.57797   -298.67445    36822.805 
   69400    304.93487   -1423.1182    452.28185    395.31989    252.30631    36822.805 
   69500     296.9892   -1469.2368    417.96166    279.28326   -442.35525    36822.805 
   69600     290.5125   -1500.4899    426.84502    227.89686      91.0328    36822.805 
   69700    301.99096   -1480.2328    423.91577    296.64998   -185.76441    36822.805 
   69800    298.77023   -1471.0747    438.40061    305.86363   -453.71392    36822.805 
   69900    298.44827   -1452.4784    425.75729     310.3741    92.810707    36822.805 
   70000    297.09877   -1471.4357    421.42474    281.03834   -276.27365    36822.805 
   70100    291.57265   -1487.5735    423.13519    241.85314   -156.80145    36822.805 
   70200     308.3567   -1476.1698    436.98885    342.30569    265.76656    36822.805 
   70300    303.31831   -1429.0665     436.9558     366.8031    284.81516    36822.805 
   70400    301.17476   -1433.9784    435.62509    350.95709    11.558705    36822.805 
   70500      302.541   -1423.0935    440.55707    372.89487    295.03798    36822.805 
   70600    295.06654   -1446.4449    434.91969    310.41941    506.01646    36822.805 
   70700    308.13985   -1464.3926    446.61633    362.73882    307.84361    36822.805 
   70800    294.73095   -1470.0783    414.31501    264.67781    260.85095    36822.805 
   70900    290.84789   -1516.4809    420.39169    206.95517    430.24216    36822.805 
   71000    302.01453   -1521.6085    424.64672    256.11092    312.41428    36822.805 
   71100    307.76205   -1498.9327    431.62178    311.51152    134.53496    36822.805 
   71200    298.42204   -1472.1095    448.67419    313.54245   -218.49357    36822.805 
   71300    304.03693   -1498.4796      417.256    280.90977    32.285198    36822.805 
   71400    297.05678   -1515.9551    438.22113    253.12717    197.27484    36822.805 
   71500     311.8661   -1478.8072    450.61227    369.01426     306.4752    36822.805 
   71600    289.83425   -1481.6479     410.2283    227.08348   -162.00025    36822.805 
   71700    306.58076   -1477.2673    422.46641    318.72919     -185.305    36822.805 
   71800    302.99786   -1436.3211    455.09332    376.25039    55.045635    36822.805 
   71900    296.95332   -1404.8726    443.75352    369.27853    13.184564    36822.805 
   72000    308.03078   -1427.6688    441.65784     394.0155    484.80101    36822.805 
   72100     308.1086   -1438.7757    425.42593     367.0253    512.26876    36822.805 
   72200    294.65541   -1419.9841    454.15983    354.27833    133.19989    36822.805 
   72300    298.85218   -1455.3666    430.77468    314.31286    312.84155    36822.805 
   72400    295.54095    -1441.284    449.23771    332.02369    428.72712    36822.805 
   72500    300.25529   -1415.0275    453.05512     383.2186    683.24401    36822.805 
   72600     294.2503   -1442.3002    459.77524    335.76274   -479.03031    36822.805 
   72700    306.25552   -1462.3301    438.14057    347.88346    -287.2145    36822.805 
   72800    286.24676   -1422.7599     445.0275    304.69814   -71.928044    36822.805 
   72900    296.94559   -1433.2605    442.10856    339.21105   -902.31061    36822.805 
   73000    305.79544   -1403.2286    437.75705    404.54016   -452.49876    36822.805 
   73100    295.44623   -1413.5949    434.64538    344.69615    -458.1343    36822.805 
   73200     302.2211   -1431.4764    433.18839    355.71006   -219.48877    36822.805 
   73300    297.40753   -1414.9406    438.24441    355.73635    -634.5288    36822.805 
   73400    299.85643   -1435.7962    446.49488    354.10273   -525.45894    36822.805 
   73500    296.25362   -1444.3559    435.00036    317.90732   -944.89004    36822.805 
   73600    293.35753   -1449.9962    407.11893    271.41071   -953.14291    36822.805 
   73700    286.78312   -1475.6771    421.10228    230.25873   -1170.6635    36822.805 
   73800    296.08519   -1431.1534    430.88438    326.23922   -1172.4033    36822.805 
   73900    306.50422   -1441.8018    426.97025    358.35558   -308.76659    36822.805 
   74000    302.79956   -1392.5604     452.0205     416.0498   -889.59275    36822.805 
   74100    292.07442   -1408.2925    453.39713    353.64405   -451.29615    36822.805 
   74200    303.65764    -1408.563    457.07697    408.94802   -470.33079    36822.805 
   74300    287.90841   -1400.9649    445.09957    334.00973    153.15393    36822.805 
   74400     308.6223    -1438.648    432.47963    376.50812   -42.132537    36822.805 
   74500    305.02395   -1415.1835    438.39943     389.7713    221.43887    36822.805 
   74600     302.0271   -1417.2643    445.17123    381.03587    429.14427    36822.805 
   74700    298.86698   -1404.0958    450.37674    385.25203    379.97233    36822.805 
   74800    300.39412   -1407.2019    465.46838    404.07943    309.32131    36822.805 
   74900    295.70321   -1441.5669    432.90104    316.13112    550.82789    36822.805 
   75000    304.11476   -1476.4944    440.31264    326.30021    598.48864    36822.805 
   75100    298.24704   -1493.3929    452.35306     295.1539    649.74065    36822.805 
   75200     306.8757   -1480.9405    459.82165    353.73264    246.12638    36822.805 
   75300    307.05062   -1484.3644    430.42529    321.69603   -513.74958    36822.805 
   75400    296.27684   -1442.7859     423.1608     307.7418   -364.11181    36822.805 
   75500    303.56513   -1478.6631    446.14677     327.5033   -162.97792    36822.805 
   75600    298.99588   -1505.3512    433.20766    267.40512    277.34638    36822.805 
   75700      293.533   -1461.9208    445.28819    298.44148    219.39893    36822.805 
   75800    291.56862    -1464.434    447.60319    289.44254   -235.37274    36822.805 
   75900    308.71281   -1461.2518    438.13559    359.96576   -22.295815    36822.805 
   76000    302.88463   -1495.7018    421.96533    283.23431   -88.908921    36822.805 
   76100    306.91829   -1411.9735    456.82394     419.8927   -15.737919    36822.805 
   76200    313.38775   -1422.1774    459.18412    441.03322    37.521501    36822.805 
   76300    307.72325   -1453.7562    447.03844    371.93085   -412.70351    36822.805 
   76400    294.99561   -1430.0913    479.05821    370.59369    13.493202    36822.805 
   76500    297.08773   -1448.8696    447.22792    329.35813   -371.94385    36822.805 
   76600    290.71156   -1446.1889    451.47452    307.71916    387.72846    36822.805 
   76700    297.21614     -1451.08    449.63937    330.13446    399.34798    36822.805 
   76800    304.13976   -1436.4206    452.50932    378.68271     504.7882    36822.805 
   76900    292.54507     -1437.49    431.52743    304.68539    354.86996    36822.805 
   77000    301.18207    -1449.745    438.91658    338.51464   -140.34901    36822.805 
   77100    343.85446   -1479.8989    422.63518    483.25841    108.49179    36822.805 
   77200    294.56949   -1517.9378    427.31544    229.09539    -160.7095    36822.805 
   77300    306.62304   -1466.3024    441.02936    348.44649   -142.97044    36822.805 
   77400    291.77497   -1489.8361    441.97476    259.33651   -697.90845    36822.805 
   77500    307.08903   -1498.9075     422.7274     299.6271   -554.61669    36822.805 
   77600     289.8842   -1468.4146    451.80834    282.12062   -740.74348    36822.805 
   77700    297.58058   -1476.3067    437.45514    294.35628   -481.99103    36822.805 
   77800    297.36223   -1485.4209    427.23126    274.04002   -450.19567    36822.805 
   77900    299.56475   -1474.0556    443.21362    311.25526   -370.43743    36822.805 
   78000    293.93893   -1479.0632    435.51647    273.34592   -444.31723    36822.805 
   78100    294.66348   -1476.3442     451.6023    295.39692   -377.37052    36822.805 
   78200    302.25867   -1488.9033    438.08535    303.34848    458.36641    36822.805 
   78300    300.09851   -1479.1643    449.76555    315.08982    552.75377    36822.805 
   78400    302.50644   -1483.9394    430.06562     301.4027    147.39764    36822.805 
   78500    301.51368   -1488.2956    418.52599    281.05912    293.06326    36822.805 
   78600    303.50769   -1534.2949    434.41126    259.87861    598.59286    36822.805 
   78700    306.72867    -1565.544    429.90712     238.5559    855.09873    36822.805 
   78800    297.89202   -1522.2501    410.83107    223.18414    413.63014    36822.805 
   78900    299.04648   -1514.6896      437.319    262.40472    256.89577    36822.805 
   79000    305.23248   -1527.7268    434.84542    274.60815    116.27738    36822.805 
   79100    302.00438   -1570.0229    389.25109    172.25533   -37.212597    36822.805 
   79200    295.20272   -1618.8759    407.84309    111.52189   -289.19171    36822.805 
   79300    295.39816   -1567.4971    410.68959    166.62272   -386.07787    36822.805 
   79400    301.41556   -1516.4772    439.25451    273.16647   -213.01922    36822.805 
   79500    312.41755   -1535.8299    421.38779    285.23772   -185.67342    36822.805 
   79600    293.83471   -1549.2936    445.01151    212.14372    283.86152    36822.805 
   79700    295.88024    -1535.662     444.3753    234.30342    513.00371    36822.805 
   79800    306.58191   -1574.1896    427.67656     227.0222    482.60153    36822.805 
   79900    289.85837   -1557.7914     432.3824    173.20216    428.99336    36822.805 
   80000    297.85626    -1545.638    437.88463    226.68962    595.34744    36822.805 
   80100    299.33626   -1567.7967    462.17038    235.44728     158.4012    36822.805 
   80200    300.73515   -1510.7652    428.05138    264.62696    188.19684    36822.805 
   80300    296.10696   -1535.9965    438.66708    229.27637   -724.10559    36822.805 
   80400    301.18754   -1506.7379    422.58518    265.21493   -276.01522    36822.805 
   80500    310.62698   -1493.1273    429.86884    328.39933   -852.19742    36822.805 
   80600    291.79482   -1533.8799    427.36347    200.77031   -1279.5149    36822.805 
   80700    301.99894   -1502.8982    437.29859    287.40316   -31.465303    36822.805 
   80800    297.65993    -1513.406    428.79482    248.95221    2.1643177    36822.805 
   80900    297.96155   -1482.9012    443.63128    295.64469   -7.7531455    36822.805 
   81000    300.93619   -1494.3533    417.19678      271.085    165.65025    36822.805 
   81100    302.12453   -1451.6803     456.9701    358.85533   -262.57532    36822.805 
   81200    302.13787   -1482.2763    426.40633    297.75531   -355.81616    36822.805 
   81300    313.50437   -1516.5472    450.35763    338.35933    214.51929    36822.805 
   81400    304.03348   -1517.4035    434.22829    278.94265    327.14625    36822.805 
   81500    297.38201   -1517.6924    459.42067    274.04653     230.9535    36822.805 
   81600    306.50285   -1520.6486    426.01137    278.54378     259.9475    36822.805 
   81700    300.66619   -1479.7616    425.79096    293.06125    477.41206    36822.805 
   81800    293.13781   -1495.0746    455.96449    274.19345    190.55217    36822.805 
   81900    303.70693   -1497.1606    453.52742    317.02171     132.9274    36822.805 
   82000    287.32409   -1471.8363    429.13599    244.55687   -56.653859    36822.805 
   82100     304.4782   -1512.4392    454.52727    306.19837     387.2537    36822.805 
   82200    305.46695   -1507.3466    438.16016    299.35361     113.9921    36822.805 
   82300    293.74342   -1477.7392    428.45829    266.73587   -226.06931    36822.805 
   82400    307.23643   -1475.5639    442.15652    343.06016   -70.610635    36822.805 
   82500     297.0066   -1468.2848    465.19885    327.55044   -519.95855    36822.805 
   82600    305.95371   -1454.4377    421.99217    338.27527   -435.34558    36822.805 
   82700    288.08214   -1417.9385    446.68416    319.39898    140.29228    36822.805 
   82800    298.16635   -1418.7189    450.56275    367.67611    524.14176    36822.805 
   82900     307.2745   -1440.3814    449.02693    385.28366    108.94535    36822.805 
   83000    294.65987   -1403.7719     454.4499    370.80062    334.66822    36822.805 
   83100    308.36403   -1489.0497    425.59154    318.06127   -343.85156    36822.805 
   83200    291.28142   -1469.5566    423.94647    259.37655   -698.76876    36822.805 
   83300    291.16284   -1464.5977    429.79646    269.65418    10.523265    36822.805 
   83400    295.49976   -1491.5561    444.34689    276.67625    239.76537    36822.805 
   83500    307.56397   -1486.9987    439.49808    330.43447    136.62321    36822.805 
   83600    294.61251   -1449.0189    445.15993    316.05144    190.78039    36822.805 
   83700    306.57042   -1425.0827    464.47074    412.87179    484.99296    36822.805 
   83800    297.15222   -1463.7737    445.43907    312.95413    466.56691    36822.805 
   83900    298.78492   -1442.2822    432.71735    329.03863    693.60338    36822.805 
   84000      290.186   -1483.7179    460.30663    276.66773    439.12354    36822.805 
   84100    301.72312   -1473.3409     462.9929    341.41909    585.14866    36822.805 
   84200    306.02386   -1477.6193    436.70488    330.12067    490.56216    36822.805 
   84300    297.71693   -1453.8034    439.81006    319.82544    312.93073    36822.805 
   84400    299.27235   -1478.6872    453.07443    315.17446    310.50966    36822.805 
   84500    301.44997   -1441.8191    470.88829    379.61251    34.065995    36822.805 
   84600    298.82896   -1468.1407    432.37161    303.03175    346.24982    36822.805 
   84700    293.92833   -1471.7884    445.74418    290.80097     516.0333    36822.805 
   84800    300.47655   -1465.7826    442.51074    322.91041    351.62122    36822.805 
   84900    294.25059   -1455.4497     433.2847    296.12397    76.332329    36822.805 
   85000    302.57382   -1476.4461     463.8939    343.02613    128.20523    36822.805 
   85100     297.5475   -1464.7041    418.34671     286.7023    8.2075153    36822.805 
   85200    310.25209   -1516.3017    451.09045    324.76696    74.410528    36822.805 
   85300    293.86451   -1508.6421     453.4734    261.39062   -169.38474    36822.805 
   85400    308.88125   -1499.9646    447.11972    330.99179    70.433966    36822.805 
   85500    298.68913   -1514.7506    455.51075    278.93455   -586.56128    36822.805 
   85600    300.08225   -1457.0669    441.70131    329.05018    -462.1257    36822.805 
   85700    299.15988   -1513.3415    452.43838     279.3803   -990.76291    36822.805 
   85800     307.5578    -1473.893    455.06165    359.07608   -483.76233    36822.805 
   85900    301.89402   -1449.8418    438.78074    341.47169   -331.41251    36822.805 
   86000    309.30651   -1445.4043     459.9697     400.3073   -617.82131    36822.805 
   86100    304.38365   -1446.9925    468.80542    385.49959   -316.65859    36822.805 
   86200    304.49431   -1476.7769    450.11205    337.51759   -595.64555    36822.805 
   86300    308.98328   -1467.7845    437.66464    354.17391    -327.0624    36822.805 
   86400    302.28592   -1477.4334    435.30376    312.15887    144.78212    36822.805 
   86500     292.2854    -1499.083    440.05342     250.4551   -347.41376    36822.805 
   86600    305.24566   -1475.7464    458.03795    349.84016   -773.79107    36822.805 
   86700    298.16251   -1436.5539    464.52165    363.78274   -360.04052    36822.805 
   86800    298.01914   -1476.8923    452.80721    311.08762   -145.72467    36822.805 
   86900    309.49702   -1495.6759    431.44833    322.36781    -205.3796    36822.805 
   87000    304.43671   -1511.1674    466.52852    319.28551    670.70146    36822.805 
   87100    293.84437    -1527.389    472.76136    261.84143    714.70236    36822.805 
   87200    307.16495   -1508.4712    466.57611    334.25222    346.25239    36822.805 
   87300    287.22119   -1540.6513    483.87157    230.01643    247.51169    36822.805 
   87400    310.63067    -1513.365    433.80441    312.11376   -87.968061    36822.805 
   87500     303.3661   -1493.9325     452.3312    317.52666    54.823328    36822.805 
   87600    295.73478   -1478.4924    458.50268    304.94866    157.95183    36822.805 
   87700    288.77175   -1540.7873    462.94445    215.90006   -169.54851    36822.805 
   87800     299.5076   -1492.7674    454.09027    303.16407    75.894296    36822.805 
   87900    287.97088   -1508.7662     477.7734    259.16207    586.54082    36822.805 
   88000     304.5289   -1542.0155    449.67319    271.99508    338.72854    36822.805 
   88100     304.9367   -1554.0434    441.36046    253.48153   -199.81321    36822.805 
   88200    300.44226   -1571.0934    443.95243    218.88763    289.53218    36822.805 
   88300    314.01334   -1547.1847     455.8087    315.45329    22.841157    36822.805 
   88400    294.15945   -1515.0734    453.92047     256.7277   -12.649129    36822.805 
   88500    301.01821   -1485.8003    459.11898    321.92769   -41.869695    36822.805 
   88600     302.2905   -1486.2857    425.94641    293.96976   -552.65494    36822.805 
   88700    299.27602    -1487.874    454.42082    307.35054   -504.61758    36822.805 
   88800    309.58147   -1490.2752    459.97893    356.67746    313.61952    36822.805 
   88900    303.30281   -1521.3562     465.1928    302.68099    2.3549694    36822.805 
   89000    300.40238   -1499.7567    441.71114    287.80448   -143.47861    36822.805 
   89100    297.28053   -1500.8237     424.8835    255.92338   -851.32025    36822.805 
[...]
  984600    307.60957   -1525.6949    517.21637    369.66082   -419.06498    36822.805 
  984700    300.34041   -1530.1107    481.11905    296.58072   -616.81022    36822.805 
  984800    302.80895   -1540.5965    465.39324    281.42854    223.35021    36822.805 
  984900    293.51887   -1535.1344    499.00308    278.87941    275.89507    36822.805 
  985000    316.77849   -1530.2655    484.99486    373.94686    550.68398    36822.805 
  985100    299.53946   -1526.8757    481.53788    296.64619    706.20706    36822.805 
  985200    301.30982   -1548.7878    480.28385    281.41152    744.74042    36822.805 
  985300    298.37087   -1553.1095    486.32552    269.96454    462.89624    36822.805 
  985400    301.41173   -1569.4093    496.51236    277.47505    196.56058    36822.805 
  985500    302.07591   -1565.9503     485.6987    273.09605   -193.26124    36822.805 
  985600    311.20646   -1549.1738     499.2791    344.35922    -330.2248    36822.805 
  985700     280.8448   -1542.2303    485.01285    201.01154   -163.47575    36822.805 
  985800    293.76897    -1562.626    487.72362    241.22892    -187.0365    36822.805 
  985900    287.75328   -1527.6453    503.26438    264.79904    76.431443    36822.805 
  986000    295.79722   -1558.3782    471.08623    237.92621   -30.609009    36822.805 
  986100     300.6389   -1592.8503    495.32054    249.37985    698.35497    36822.805 
  986200    298.23933   -1550.5975    482.29679    267.85845    890.24753    36822.805 
  986300    295.90207   -1558.5762    490.43473    257.54643    1055.1655    36822.805 
  986400    285.91459   -1508.9518    498.53404     270.5247    137.26609    36822.805 
  986500    301.79276   -1538.1717    504.38561    318.29304    610.33062    36822.805 
  986600    300.27791    -1518.261    486.12557     313.1569   -41.824399    36822.805 
  986700    294.27831   -1534.9879    468.37588     251.8012   -58.590791    36822.805 
  986800    299.83274   -1556.4916    475.00038    261.80665    327.32942    36822.805 
  986900    305.86353   -1555.5105     482.4405    297.24674    749.34348    36822.805 
  987000    306.51638   -1562.0808    487.90865    299.06956     528.2909    36822.805 
  987100    296.83898   -1526.0426    464.49125     268.3341    851.04948    36822.805 
  987200    308.06495   -1519.8438    499.97164    360.30732    999.42653    36822.805 
  987300    302.98426   -1547.1032    464.41885    274.73289     -91.4072    36822.805 
  987400    293.74873   -1581.1637    451.98438     186.8613    272.06575    36822.805 
  987500     300.6335    -1578.257    498.58061    267.20906    232.40096    36822.805 
  987600    302.80609   -1554.4321    473.96911      276.156   -293.43323    36822.805 
  987700    299.03598   -1543.0066    479.89367    276.61536   -134.97623    36822.805 
  987800    288.27804   -1553.2675    484.03046    222.29401   -482.69127    36822.805 
  987900    292.92988   -1561.1507     493.9945    245.21583   -181.87796    36822.805 
  988000    294.26019   -1584.0217    501.39743    235.70771    79.040977    36822.805 
  988100    304.50876     -1542.77    506.05629    327.53347    -245.6873    36822.805 
  988200      306.211   -1518.7671    453.46304    306.56944   -183.57397    36822.805 
  988300    301.89049   -1546.4804    493.58708    299.62368    -441.9449    36822.805 
  988400    296.86682   -1531.0456    486.96919     285.9337   -102.14191    36822.805 
  988500    293.99883   -1557.0631     466.8511    226.94906   -328.52582    36822.805 
  988600    298.93301   -1578.4552     478.2873    239.09905   -681.78973    36822.805 
  988700    296.86071   -1525.9366    496.42598     300.4721   -11.657981    36822.805 
  988800    296.30121   -1554.7763    490.68663    263.38642    724.97539    36822.805 
  988900    303.43846    -1612.433    483.17415    230.19319    383.65287    36822.805 
  989000    292.74938   -1584.3438    459.83777    187.05732    316.33718    36822.805 
  989100    310.63791   -1562.3282    477.02665    306.40515    185.77548    36822.805 
  989200    301.01018   -1585.1851    482.04304    245.43099   -518.07957    36822.805 
  989300    308.73838   -1583.8215     483.6003    282.97536   -344.49424    36822.805 
  989400    293.48489    -1595.319    486.45404    205.99362   -123.37024    36822.805 
  989500    302.45697   -1539.6253    485.57212    301.00171   -36.605114    36822.805 
  989600    296.47461   -1564.1814    476.03403    240.10555   -65.906852    36822.805 
  989700    304.01196   -1567.2733    471.58866    266.33679    171.32261    36822.805 
  989800    311.04998   -1606.1233    477.88964    265.31923    38.391981    36822.805 
  989900    290.10381   -1561.7683    493.72837    231.67077   -148.58553    36822.805 
  990000    293.27738   -1553.1711    468.81687    229.57459    174.50462    36822.805 
  990100    296.83581   -1562.1461    471.33879    239.06384   -21.411035    36822.805 
  990200    296.34267   -1575.6869    456.05305    208.02801    6.5850429    36822.805 
  990300    310.72402   -1557.7589    495.00852    329.34217      395.704    36822.805 
  990400    288.73913   -1584.3648    478.60602    187.83797    70.219515    36822.805 
  990500    301.83812   -1553.1414    515.69555    314.83649    269.16088    36822.805 
  990600    305.98915   -1573.2759     472.6807    270.28436    403.36733    36822.805 
  990700    291.50404   -1601.7657    479.05939    183.27766    496.78959    36822.805 
  990800    296.28007   -1581.3125     493.5669    239.63578    50.413336    36822.805 
  990900    302.67796   -1554.0415    487.57169    289.57513    396.41066    36822.805 
  991000    295.46858   -1556.3533    485.20762    252.60011   -225.64102    36822.805 
  991100    309.44699    -1583.241     466.2203    269.35054   -248.00785    36822.805 
  991200    303.49264   -1552.6809    480.52828    287.54224   -1073.4265    36822.805 
  991300    301.06029   -1513.7348    470.31304    305.37577   -298.40273    36822.805 
  991400     291.4453   -1571.3825     491.9152    226.25351    -655.1399    36822.805 
  991500    294.01346   -1559.8289    469.64882    227.04651   -650.23854    36822.805 
  991600    291.12041   -1533.4064    468.51774    239.37667    -1075.978    36822.805 
  991700    294.11717   -1560.6332    505.09163    262.14966   -953.39404    36822.805 
  991800    303.27993   -1549.0232    474.63746    284.35616   -859.43634    36822.805 
  991900     300.8111   -1543.2653    477.45395    281.86974   -740.45365    36822.805 
  992000    302.04214   -1512.4602    498.12728    338.86344   -301.98834    36822.805 
  992100    296.99301   -1565.1038    458.00411    223.47576     -414.565    36822.805 
  992200    294.92739   -1561.7846    484.50726    244.04385   -321.77121    36822.805 
  992300    289.54366   -1524.1035    487.25435    260.35207   -142.13317    36822.805 
  992400    309.90918    -1516.164    477.61452    349.89241   -532.43457    36822.805 
  992500    291.52853   -1537.8027      486.735    255.02598    23.177683    36822.805 
  992600    299.04015   -1524.1632    489.48516    305.06896   -125.42116    36822.805 
  992700    300.70235   -1547.5979    480.30009    279.89606   -622.36937    36822.805 
  992800    294.80702   -1547.0234    466.12407    239.88255   -688.25706    36822.805 
  992900    296.07364   -1543.5728    506.51296    289.39668   -418.65524    36822.805 
  993000    296.28649   -1571.3831    485.56116    241.58818   -326.36924    36822.805 
  993100    288.54872    -1554.709    501.48498    239.51963    347.58646    36822.805 
  993200    301.58959   -1518.1231    509.58958    342.63539    39.147697    36822.805 
  993300    312.54549   -1484.0421    487.91613    404.12705       471.93    36822.805 
  993400    311.84609   -1520.6621    498.14794    374.60544     111.6053    36822.805 
  993500     292.8727   -1528.3335    482.33843    266.12074    634.56762    36822.805 
  993600    300.30974   -1537.0819     479.8336     288.1866   -384.79267    36822.805 
  993700    284.90164   -1540.0943    487.99649    224.30645    23.206245    36822.805 
  993800    296.85988    -1506.688    479.49881     302.7898    119.09622    36822.805 
  993900    296.16438   -1512.6385    464.69976    278.92434   -534.47211    36822.805 
  994000    304.10521   -1484.9902    512.44605     389.8951   -343.36977    36822.805 
  994100    298.66941   -1490.0366     472.8928    320.94217   -48.962328    36822.805 
  994200    305.20009   -1577.7291     475.8147    265.43011    -367.6339    36822.805 
  994300    295.05402   -1538.5449    472.99959    256.34319    301.69155    36822.805 
  994400    305.35534   -1532.9693    495.11814    330.18887   -273.07379    36822.805 
  994500    295.70764   -1560.2418    442.54982    207.12488   -324.53572    36822.805 
  994600    295.10281   -1523.6799    501.04787    299.47499   -472.08212    36822.805 
  994700    286.64535   -1562.5813    467.57702    189.21205    286.45291    36822.805 
  994800     301.2457   -1590.0886    468.20024    227.73979   -52.886609    36822.805 
  994900    293.83602   -1569.5586    480.94052    227.81355   -84.223582    36822.805 
  995000    297.50793   -1568.5939    455.61894    219.90745    777.02637    36822.805 
  995100    296.20315   -1578.1372    469.55348     218.4531    729.84106    36822.805 
  995200    306.77422    -1550.721    490.99896    314.67477    329.62574    36822.805 
  995300    304.24533   -1573.6347    489.97854    279.41082    225.39274    36822.805 
  995400     294.1605   -1569.1815    475.24107    223.94494    568.47782    36822.805 
  995500    303.84324   -1508.8386    475.28841    327.71537    212.25798    36822.805 
  995600    304.17487   -1545.3109    472.11689    289.55737    406.32448    36822.805 
  995700    292.95038   -1500.2512    475.60646    287.81913    450.37362    36822.805 
  995800    294.47005   -1553.1352    486.42371    252.56068   -593.69417    36822.805 
  995900    312.34728   -1566.5818    478.50706    311.29026   -753.50032    36822.805 
  996000    293.67555    -1529.891    490.46727    276.28896   -73.295238    36822.805 
  996100    300.26543   -1557.7991    476.82658     264.2639    659.92704    36822.805 
  996200    298.87449   -1592.3243    489.38047    236.06102    300.93552    36822.805 
  996300    299.23008   -1545.4544    479.28212    274.42563    565.25099    36822.805 
  996400    306.12677   -1576.9847    484.07092    278.58236    380.65303    36822.805 
  996500    304.07273   -1566.9132    500.60819    295.98868    96.946501    36822.805 
  996600    305.97376   -1549.5189    462.26365    283.55537   -709.54549    36822.805 
  996700    286.68576   -1539.8133    514.44559    259.02967   -449.18196    36822.805 
  996800    299.02329   -1560.4186    493.85197    273.10485   -291.89547    36822.805 
  996900    296.43107   -1648.7248    473.02023    152.35328   -666.26561    36822.805 
  997000    300.86115   -1588.5436    504.69005    264.05176   -350.14342    36822.805 
  997100    296.10355   -1579.8936    512.47763    259.17459    460.75334    36822.805 
  997200    295.37592   -1568.7635    488.97804    243.54521    698.54994    36822.805 
  997300    299.08216   -1546.8078    493.61539    286.74276    437.04378    36822.805 
  997400     293.7047   -1602.3086    476.37401    189.90879    372.56726    36822.805 
  997500    299.44893   -1514.6941    501.49689    328.38115    498.97469    36822.805 
  997600    288.17216   -1565.4644     497.5235     223.1158    230.43525    36822.805 
  997700     294.3389   -1557.6881    491.26774    252.26429    257.54428    36822.805 
  997800    307.24458   -1610.2045    493.83736    260.13699    118.84686    36822.805 
  997900    287.26106   -1608.3231    497.54572    176.19736    237.80035    36822.805 
  998000    314.10535   -1603.7075    496.69689     300.2308    300.87657    36822.805 
  998100    310.96824   -1545.2591    472.14882    320.07641   -85.173687    36822.805 
  998200    297.12237   -1539.6364    500.64096     292.1596    45.459657    36822.805 
  998300    300.02998   -1566.0692    484.68628    262.79867   -479.04923    36822.805 
  998400    294.82744   -1546.7722    468.22054    242.32172    75.312068    36822.805 
  998500    312.75779    -1553.454    490.03918    337.78934    438.02574    36822.805 
  998600    288.67195   -1541.4041    496.21482    248.10649    916.04016    36822.805 
  998700    303.12884   -1569.0023    510.29854    299.36124    683.32872    36822.805 
  998800    304.27827   -1545.0542    495.43247    313.59286    521.10331    36822.805 
  998900     301.2744   -1566.8469    495.50744    278.41733    192.49135    36822.805 
  999000    298.87167   -1531.2636    459.12689    266.85542   -895.33975    36822.805 
  999100    301.78972   -1540.7324    496.35557    307.68863   -697.26471    36822.805 
  999200    308.36853   -1569.5394    493.83352    305.83368    96.467154    36822.805 
  999300    298.29113   -1549.4676    465.87038    252.79404    163.27728    36822.805 
  999400    300.00682   -1597.4717    460.21982     206.8259    333.84085    36822.805 
  999500    304.49534   -1587.2347    499.76721    276.71958    397.29637    36822.805 
  999600    307.31602   -1568.3087     495.4373    303.95277    440.44408    36822.805 
  999700    311.53372   -1578.2193    480.76261     298.2635    1118.1523    36822.805 
  999800     305.4257    -1562.574    494.13514     299.9164    829.99001    36822.805 
  999900    307.02166   -1566.9757    476.72597    285.25568   -187.16757    36822.805 
 1000000    301.74033   -1582.4963    499.48589     268.8338    257.89127    36822.805 
 1000100    296.89597   -1580.4376    462.46083    212.16395   -552.10811    36822.805 
 1000200    299.23935   -1565.9869     488.7012    263.35368   -979.22291    36822.805 
 1000300    302.01546   -1570.1391     458.6963    241.63404    -374.2634    36822.805 
 1000400     307.6339    -1514.326    488.88021    352.80256    -454.5405    36822.805 
 1000500     309.4827   -1538.7877    527.51422    375.25776     111.9382    36822.805 
 1000600    309.26504   -1548.2018    456.01047    293.36478    404.80536    36822.805 
 1000700    298.69498   -1528.8921    500.25785    309.56629   -152.33053    36822.805 
 1000800    306.79375   -1568.1069    477.61161    283.98903    116.43465    36822.805 
 1000900    290.54451   -1534.8282    518.52438    285.38132    613.33834    36822.805 
 1001000    293.98151   -1563.8154    496.85634    250.12436    840.08538    36822.805 
 1001100    304.26353   -1584.2718    489.10718     267.9839    478.11208    36822.805 
 1001200    301.82766   -1536.5576    503.84102    319.51886   -47.816033    36822.805 
 1001300     298.9922   -1580.0147    474.41912    233.93662    238.38428    36822.805 
 1001400    306.86277    -1568.111    490.53851    297.22106    282.50497    36822.805 
 1001500    294.25777   -1604.6208    478.22882    191.92922   -652.14727    36822.805 
 1001600    306.67858   -1564.3486     500.7329    310.35259    102.44075    36822.805 
 1001700    305.21176   -1619.9671    484.61812    232.04776   -96.408193    36822.805 
 1001800    293.72944   -1611.3387    501.19898     205.8144   -369.42324    36822.805 
 1001900    295.95148   -1589.9531    479.64876    215.60495   -739.26215    36822.805 
 1002000     309.2341   -1605.3108    462.81392    242.92066   -183.58199    36822.805 
 1002100    304.49655   -1641.4219    478.86769    201.63832    346.28314    36822.805 
 1002200    292.74722   -1591.9518    496.04955    215.65141    276.13015    36822.805 
 1002300    292.61724   -1550.8111    498.67731    258.83754   -518.58651    36822.805 
 1002400    298.07326   -1552.1288    466.78372    250.07008   -365.02454    36822.805 
 1002500     298.3367    -1571.844    487.15276    251.90415   -442.21495    36822.805 
 1002600    310.62376   -1559.5054    483.76401    315.90203   -301.64218    36822.805 
 1002700    305.36407   -1544.4369     498.7044    322.34666   -483.46804    36822.805 
 1002800    308.98472   -1573.0361    494.53596    305.80004   -417.62579    36822.805 
 1002900    297.71073   -1609.6159    476.49047    200.66557    -137.6726    36822.805 
 1003000    297.55328    -1554.961    484.67061    262.79518    66.912229    36822.805 
 1003100    302.47814    -1563.794    484.99557    276.35127    512.16567    36822.805 
 1003200    299.44199   -1531.6522     504.3432    314.23824   -193.86555    36822.805 
 1003300    305.94395    -1554.495     480.8005    296.98262    110.30121    36822.805 
 1003400    292.87278    -1557.476    482.11888     236.7591    292.28049    36822.805 
 1003500    302.98767   -1555.6658     500.1836    301.95035   -57.128215    36822.805 
 1003600    303.01822   -1555.3677    476.27226    278.47392   -47.852771    36822.805 
 1003700    301.24605   -1541.3526    475.02229    283.29942    117.51854    36822.805 
 1003800     297.6133   -1545.2492     494.5177    282.62297    329.23348    36822.805 
 1003900    306.65785   -1554.3388    474.81091    294.34756   -362.90219    36822.805 
 1004000    298.17683    -1578.151    456.84912    214.57732   -78.157137    36822.805 
 1004100    299.17967   -1565.1312    467.82386    243.06468   -253.23317    36822.805 
 1004200    296.56469   -1567.5848    467.24105    228.31274   -221.90808    36822.805 
 1004300    298.15724   -1559.5745    473.29557    249.51251    114.23454    36822.805 
 1004400    304.74777   -1587.5978    485.99487    263.71505    77.476242    36822.805 
 1004500    307.19152   -1570.5596    485.22899    290.93575   -438.14593    36822.805 
 1004600    293.91474   -1535.0084     479.6975    261.47341   -840.08453    36822.805 
 1004700    302.69511   -1511.6235    473.81939    318.31768    -279.3465    36822.805 
 1004800    298.03773   -1540.2636    476.20726    271.19962    151.70965    36822.805 
 1004900    298.40376   -1525.4519    500.72141    312.16535    296.28742    36822.805 
 1005000    308.05171   -1518.0829    460.53941    322.57665   -4.2490594    36822.805 
 1005100    293.41967   -1550.8333    491.18656    254.91963    149.15955    36822.805 
 1005200    296.31971   -1555.1262    459.56536    231.99816    0.5662713    36822.805 
 1005223    310.87465     -1546.32    473.84105    320.28847   -34.054518    36822.805 
Loop time of 595.479 on 32 procs for 1000000 steps with 1504 atoms

Performance: 145.093 ns/day, 0.165 hours/ns, 1679.321 timesteps/s
100.0% CPU use with 32 MPI tasks x no OpenMP threads

MPI task timing breakdown:
Section |  min time  |  avg time  |  max time  |%varavg| %total
---------------------------------------------------------------
Pair    | 244.12     | 276.59     | 324.35     | 113.6 | 46.45
Bond    | 1.3538     | 1.4788     | 1.6263     |   4.8 |  0.25
Neigh   | 38.56      | 38.645     | 38.728     |   1.0 |  6.49
Comm    | 219.07     | 266.82     | 299.31     | 115.6 | 44.81
Output  | 0.38915    | 0.40553    | 0.824      |  11.8 |  0.07
Modify  | 8.2326     | 8.4401     | 8.6448     |   3.4 |  1.42
Other   |            | 3.105      |            |       |  0.52

Nlocal:        47.0000 ave          80 max          12 min
Histogram: 1 2 3 5 2 9 3 3 0 4
Nghost:        2019.84 ave        2124 max        1909 min
Histogram: 2 2 3 4 5 4 3 2 5 2
Neighs:        5449.97 ave       12347 max        1194 min
Histogram: 2 7 6 3 5 2 2 3 1 1

Total # of neighbors = 174399
Ave neighs/atom = 115.95678
Ave special neighs/atom = 2.0026596
Neighbor list builds = 49719
Dangerous builds = 0

# Output the system volume
variable v equal vol
print 'The system volume is $v'
The system volume is 36822.8053445039

# Outputs
variable A equal xhi-xlo
variable B equal yhi-ylo
variable C equal zhi-zlo
variable D equal xy
variable E equal xz
variable F equal yz
print 'Lattice vectors'
Lattice vectors
print '$A 0 0'
33.268939508738 0 0
print '$D $B 0'
0 33.268939508738 0
print '$E $F $C'
0 0 33.268939508738
Total wall time: 0:10:00
