LAMMPS data file
 1510 atoms
 1009 bonds
 513 angles
 13 dihedrals
 2 impropers
 8 atom types
 8 bond types
 5 angle types
 3 dihedral types
 1 improper types
 0 15 xlo xhi
 0 15 ylo yhi
 0 15 zlo zhi
 0 0 0 xy xz yz

# Atom types
#
# 1 O_2
# 2 S_3
# 3 C_3
# 4 C_2
# 5 N_2
# 6 H_
# 7 H__HB
# 8 O_3

# Bond Coeffs
#
# 1 O_2*C_2
# 2 S_3*C_3
# 3 C_3*C_2
# 4 C_3*H_
# 5 C_2*N_2
# 6 N_2*H__HB
# 7 S_3*H_
# 8 O_3*H__HB

# Angle Coeffs
#
# 1 S_3
# 2 C_3
# 3 C_2
# 4 N_2
# 5 O_3

# Dihedral Coeffs
#
# 1 A1
# 2 B1
# 3 C1

# Inversion Coeffs
#
# 1 1

 Masses

 1 16
 2 32.06
 3 12.01
 4 12.01
 5 14.01
 6 1.01
 7 1.01
 8 16

 Atoms # full

1 1 1 0 3.19220163926636 9.64691649652915 10.0462003526914
2 1 2 0 -0.026596038570077 10.1288285503937 9.64458086674134
3 1 3 0 1.25588274359338 9.15654855344741 8.8043503800065
4 1 4 0 2.34684448895366 8.77789201855149 9.72523121851986
5 1 5 0 2.33158732883651 7.5322482668817 10.2599879978048
6 1 6 0 0.793701794932387 8.26988915100225 8.36688194143016
7 1 6 0 1.66088442351345 9.7504905610524 7.98301056551796
8 1 7 0 1.65580910350735 6.9257700017596 9.91781569602475
9 1 7 0 3.09530177423102 7.06001469440988 11.268845212145
10 1 6 0 -0.377827804846983 9.00519569760893 10.9373912157488
11 2 7 0 1.06632209426723 15.1485251010768 10.1743816200178
12 2 8 0 2.02632209426723 15.1485251010768 10.1743816200178
13 2 7 0 2.26632209426723 14.2185251010768 10.1743816200178
14 3 7 0 -0.110972609398887 1.71864935819991 3.87042038608342
15 3 8 0 0.849027390601113 1.71864935819991 3.87042038608342
16 3 7 0 1.08902739060111 0.788649358199909 3.87042038608342
17 4 7 0 7.20187103186734 4.63357129408047 2.72965897573158
18 4 8 0 8.16187103186734 4.63357129408047 2.72965897573158
19 4 7 0 8.40187103186734 3.70357129408047 2.72965897573158
20 5 7 0 0.295376611612737 5.90539357433096 1.45803987979889
21 5 8 0 1.25537661161274 5.90539357433096 1.45803987979889
22 5 7 0 1.49537661161274 4.97539357433096 1.45803987979889
23 6 7 0 6.83123201874085 5.95862674800679 6.15298270597123
24 6 8 0 7.79123201874085 5.95862674800679 6.15298270597123
25 6 7 0 8.03123201874085 5.02862674800679 6.15298270597123
26 7 7 0 7.182603977127 12.4348104958795 10.9343500854447
27 7 8 0 8.142603977127 12.4348104958795 10.9343500854447
28 7 7 0 8.382603977127 11.5048104958795 10.9343500854447
29 8 7 0 8.11860429399647 14.1343628700729 1.30406937561929
30 8 8 0 9.07860429399647 14.1343628700729 1.30406937561929
31 8 7 0 9.31860429399647 13.2043628700729 1.30406937561929
32 9 7 0 6.35543480442837 12.1668685790524 14.0303663501982
33 9 8 0 7.31543480442837 12.1668685790524 14.0303663501982
34 9 7 0 7.55543480442837 11.2368685790524 14.0303663501982
35 10 7 0 13.9363024108764 1.15673897479661 3.86028854758479
36 10 8 0 14.8963024108764 1.15673897479661 3.86028854758479
37 10 7 0 15.1363024108764 0.226738974796608 3.86028854758479
38 11 7 0 0.359469955293462 10.2393330486398 10.5903610854875
39 11 8 0 1.31946995529346 10.2393330486398 10.5903610854875
40 11 7 0 1.55946995529346 9.30933304863982 10.5903610854875
41 12 7 0 2.94963765118271 7.58718403213657 5.80660005798563
42 12 8 0 3.90963765118271 7.58718403213657 5.80660005798563
43 12 7 0 4.14963765118271 6.65718403213657 5.80660005798563
44 13 7 0 11.0874978073128 9.80015403282829 3.81049890071154
45 13 8 0 12.0474978073128 9.80015403282829 3.81049890071154
46 13 7 0 12.2874978073128 8.87015403282829 3.81049890071154
47 14 7 0 3.47334674603306 14.0840472971927 8.35924088023603
48 14 8 0 4.43334674603306 14.0840472971927 8.35924088023603
49 14 7 0 4.67334674603306 13.1540472971927 8.35924088023603
50 15 7 0 13.560108155217 7.88286454783753 4.67210197588429
51 15 8 0 14.520108155217 7.88286454783753 4.67210197588429
52 15 7 0 14.760108155217 6.95286454783753 4.67210197588429
53 16 7 0 13.5065580303501 12.4650534921698 0.327361413510516
54 16 8 0 14.4665580303501 12.4650534921698 0.327361413510516
55 16 7 0 14.7065580303501 11.5350534921698 0.327361413510516
56 17 7 0 6.41856743182987 6.40518547425978 14.2843186261598
57 17 8 0 7.37856743182987 6.40518547425978 14.2843186261598
58 17 7 0 7.61856743182987 5.47518547425978 14.2843186261598
59 18 7 0 8.55281162235886 4.6719658483658 4.62878860998899
60 18 8 0 9.51281162235886 4.6719658483658 4.62878860998899
61 18 7 0 9.75281162235886 3.7419658483658 4.62878860998899
62 19 7 0 11.666225592345 8.15478687332012 12.2899686300661
63 19 8 0 12.626225592345 8.15478687332012 12.2899686300661
64 19 7 0 12.866225592345 7.22478687332012 12.2899686300661
65 20 7 0 5.06922619926743 1.16814979043789 5.66521427594125
66 20 8 0 6.02922619926743 1.16814979043789 5.66521427594125
67 20 7 0 6.26922619926743 0.238149790437892 5.66521427594125
68 21 7 0 5.64486092233099 10.0441390175279 6.542730712099
69 21 8 0 6.60486092233099 10.0441390175279 6.542730712099
70 21 7 0 6.84486092233099 9.11413901752792 6.542730712099
71 22 7 0 7.74095345914364 14.5778167647682 14.9173486407381
72 22 8 0 8.70095345914364 14.5778167647682 14.9173486407381
73 22 7 0 8.94095345914364 13.6478167647682 14.9173486407381
74 23 7 0 0.0261793196853251 0.866076613720506 4.52387541532516
75 23 8 0 0.986179319685325 0.866076613720506 4.52387541532516
76 23 7 0 1.22617931968533 -0.0639233862794936 4.52387541532516
77 24 7 0 5.76583960602991 10.0529158026353 6.38047197600827
78 24 8 0 6.72583960602991 10.0529158026353 6.38047197600827
79 24 7 0 6.96583960602991 9.12291580263525 6.38047197600827
80 25 7 0 9.11721276163123 6.51657951803878 6.71717458753847
81 25 8 0 10.0772127616312 6.51657951803878 6.71717458753847
82 25 7 0 10.3172127616312 5.58657951803878 6.71717458753847
83 26 7 0 4.99323914802633 11.9193882499263 9.71246273140423
84 26 8 0 5.95323914802633 11.9193882499263 9.71246273140423
85 26 7 0 6.19323914802633 10.9893882499263 9.71246273140423
86 27 7 0 6.93369235421531 3.6282063663844 2.00266546919011
87 27 8 0 7.89369235421531 3.6282063663844 2.00266546919011
88 27 7 0 8.13369235421531 2.6982063663844 2.00266546919011
89 28 7 0 10.0654360900819 12.6663809599727 1.43875240813941
90 28 8 0 11.0254360900819 12.6663809599727 1.43875240813941
91 28 7 0 11.2654360900819 11.7363809599727 1.43875240813941
92 29 7 0 10.9612701104209 3.19636468001641 7.22908040159382
93 29 8 0 11.9212701104209 3.19636468001641 7.22908040159382
94 29 7 0 12.1612701104209 2.26636468001641 7.22908040159382
95 30 7 0 2.98182472863235 6.78902327822521 1.14822801668197
96 30 8 0 3.94182472863235 6.78902327822521 1.14822801668197
97 30 7 0 4.18182472863235 5.85902327822521 1.14822801668197
98 31 7 0 13.917542841956 13.5210340823419 3.85905032395385
99 31 8 0 14.877542841956 13.5210340823419 3.85905032395385
100 31 7 0 15.117542841956 12.5910340823419 3.85905032395385
101 32 7 0 5.16711473392323 11.568173029637 3.49812720436603
102 32 8 0 6.12711473392323 11.568173029637 3.49812720436603
103 32 7 0 6.36711473392323 10.638173029637 3.49812720436603
104 33 7 0 13.1340671684314 9.22213598893955 9.12528011365794
105 33 8 0 14.0940671684314 9.22213598893955 9.12528011365794
106 33 7 0 14.3340671684314 8.29213598893955 9.12528011365794
107 34 7 0 3.54930529880337 12.4439172555599 9.03358201961964
108 34 8 0 4.50930529880337 12.4439172555599 9.03358201961964
109 34 7 0 4.74930529880337 11.5139172555599 9.03358201961964
110 35 7 0 10.6328642454185 10.5485858842172 13.4615154680796
111 35 8 0 11.5928642454185 10.5485858842172 13.4615154680796
112 35 7 0 11.8328642454185 9.61858588421717 13.4615154680796
113 36 7 0 2.33734886205755 10.102991289869 8.19651535945013
114 36 8 0 3.29734886205755 10.102991289869 8.19651535945013
115 36 7 0 3.53734886205755 9.17299128986895 8.19651535945013
116 37 7 0 1.47831817899831 10.6787109495513 4.89610826829448
117 37 8 0 2.43831817899831 10.6787109495513 4.89610826829448
118 37 7 0 2.67831817899831 9.74871094955131 4.89610826829448
119 38 7 0 2.96819731520489 13.0084309917316 11.179188588867
120 38 8 0 3.92819731520489 13.0084309917316 11.179188588867
121 38 7 0 4.16819731520489 12.0784309917316 11.179188588867
122 39 7 0 9.68066213579848 3.32909185829572 12.2601352329366
123 39 8 0 10.6406621357985 3.32909185829572 12.2601352329366
124 39 7 0 10.8806621357985 2.39909185829572 12.2601352329366
125 40 7 0 8.17618906890973 8.38789704413153 12.0776942116208
126 40 8 0 9.13618906890973 8.38789704413153 12.0776942116208
127 40 7 0 9.37618906890973 7.45789704413153 12.0776942116208
128 41 7 0 3.07678841913119 5.46274421311915 9.73793477634899
129 41 8 0 4.03678841913119 5.46274421311915 9.73793477634899
130 41 7 0 4.27678841913119 4.53274421311915 9.73793477634899
131 42 7 0 1.10629416463897 8.34537878557108 9.31146750343032
132 42 8 0 2.06629416463897 8.34537878557108 9.31146750343032
133 42 7 0 2.30629416463897 7.41537878557108 9.31146750343032
134 43 7 0 0.835352703435347 6.51177089702338 14.835411667591
135 43 8 0 1.79535270343535 6.51177089702338 14.835411667591
136 43 7 0 2.03535270343535 5.58177089702338 14.835411667591
137 44 7 0 4.9091934417095 6.94072959287092 13.0258535582107
138 44 8 0 5.8691934417095 6.94072959287092 13.0258535582107
139 44 7 0 6.1091934417095 6.01072959287092 13.0258535582107
140 45 7 0 12.5878332908917 4.0175614114292 2.88457929971628
141 45 8 0 13.5478332908917 4.0175614114292 2.88457929971628
142 45 7 0 13.7878332908917 3.0875614114292 2.88457929971628
143 46 7 0 6.72383011828177 1.82341608259827 0.372058034408838
144 46 8 0 7.68383011828177 1.82341608259827 0.372058034408838
145 46 7 0 7.92383011828177 0.893416082598269 0.372058034408838
146 47 7 0 7.17827013504691 13.0399310639501 12.6275596290361
147 47 8 0 8.13827013504691 13.0399310639501 12.6275596290361
148 47 7 0 8.37827013504691 12.1099310639501 12.6275596290361
149 48 7 0 7.33979791330174 10.4498472045548 12.9723915131763
150 48 8 0 8.29979791330174 10.4498472045548 12.9723915131763
151 48 7 0 8.53979791330174 9.51984720455483 12.9723915131763
152 49 7 0 4.5098724395223 11.2274406016245 9.51400340069085
153 49 8 0 5.4698724395223 11.2274406016245 9.51400340069085
154 49 7 0 5.7098724395223 10.2974406016245 9.51400340069085
155 50 7 0 4.66475629873574 2.58569515584037 6.42800388741307
156 50 8 0 5.62475629873574 2.58569515584037 6.42800388741307
157 50 7 0 5.86475629873574 1.65569515584037 6.42800388741307
158 51 7 0 9.72677706551738 10.0607196932565 9.70298807951622
159 51 8 0 10.6867770655174 10.0607196932565 9.70298807951622
160 51 7 0 10.9267770655174 9.13071969325654 9.70298807951622
161 52 7 0 9.32934025229886 5.32389850047417 7.52806161646731
162 52 8 0 10.2893402522989 5.32389850047417 7.52806161646731
163 52 7 0 10.5293402522989 4.39389850047417 7.52806161646731
164 53 7 0 2.8770580286812 2.34897555591539 5.58172269724309
165 53 8 0 3.8370580286812 2.34897555591539 5.58172269724309
166 53 7 0 4.0770580286812 1.41897555591539 5.58172269724309
167 54 7 0 4.62309907467105 4.56568784587085 2.09626770811155
168 54 8 0 5.58309907467105 4.56568784587085 2.09626770811155
169 54 7 0 5.82309907467105 3.63568784587085 2.09626770811155
170 55 7 0 3.5547280059848 5.94841460039839 6.76710703410208
171 55 8 0 4.5147280059848 5.94841460039839 6.76710703410208
172 55 7 0 4.7547280059848 5.01841460039839 6.76710703410208
173 56 7 0 1.12929938055575 4.81352192274295 8.04003859986551
174 56 8 0 2.08929938055575 4.81352192274295 8.04003859986551
175 56 7 0 2.32929938055575 3.88352192274295 8.04003859986551
176 57 7 0 2.14838558851741 1.99614507652819 1.43590833409689
177 57 8 0 3.10838558851741 1.99614507652819 1.43590833409689
178 57 7 0 3.34838558851741 1.06614507652819 1.43590833409689
179 58 7 0 13.1588384338841 15.1257249868382 1.54132865485735
180 58 8 0 14.1188384338841 15.1257249868382 1.54132865485735
181 58 7 0 14.3588384338841 14.1957249868382 1.54132865485735
182 59 7 0 13.2014839960914 14.6901260495093 3.08682306320406
183 59 8 0 14.1614839960914 14.6901260495093 3.08682306320406
184 59 7 0 14.4014839960914 13.7601260495093 3.08682306320406
185 60 7 0 14.0556619239226 11.4075108400453 3.10349437873811
186 60 8 0 15.0156619239226 11.4075108400453 3.10349437873811
187 60 7 0 15.2556619239226 10.4775108400453 3.10349437873811
188 61 7 0 1.62805759275332 15.054252928067 4.48721805587411
189 61 8 0 2.58805759275332 15.054252928067 4.48721805587411
190 61 7 0 2.82805759275332 14.124252928067 4.48721805587411
191 62 7 0 11.2442336165998 6.80759090854786 4.29550193133764
192 62 8 0 12.2042336165998 6.80759090854786 4.29550193133764
193 62 7 0 12.4442336165998 5.87759090854786 4.29550193133764
194 63 7 0 -0.132362199509516 14.4747178435232 13.5388577438425
195 63 8 0 0.827637800490484 14.4747178435232 13.5388577438425
196 63 7 0 1.06763780049048 13.5447178435232 13.5388577438425
197 64 7 0 3.17209798537195 4.84498254413716 8.69702950352803
198 64 8 0 4.13209798537195 4.84498254413716 8.69702950352803
199 64 7 0 4.37209798537195 3.91498254413716 8.69702950352803
200 65 7 0 3.95574489419349 5.9960658491496 7.13391566765495
201 65 8 0 4.91574489419349 5.9960658491496 7.13391566765495
202 65 7 0 5.15574489419349 5.0660658491496 7.13391566765495
203 66 7 0 -0.0733860531169921 1.50078646996059 0.23275741841644
204 66 8 0 0.886613946883008 1.50078646996059 0.23275741841644
205 66 7 0 1.12661394688301 0.570786469960585 0.23275741841644
206 67 7 0 12.0428610783722 14.6679012167174 13.5295142442919
207 67 8 0 13.0028610783722 14.6679012167174 13.5295142442919
208 67 7 0 13.2428610783722 13.7379012167174 13.5295142442919
209 68 7 0 -0.0135088416561484 6.75914468517527 9.06109449220821
210 68 8 0 0.946491158343852 6.75914468517527 9.06109449220821
211 68 7 0 1.18649115834385 5.82914468517527 9.06109449220821
212 69 7 0 7.89223145853728 11.2183343448583 0.831623630365357
213 69 8 0 8.85223145853728 11.2183343448583 0.831623630365357
214 69 7 0 9.09223145853728 10.2883343448583 0.831623630365357
215 70 7 0 10.5097043355647 0.354335986021906 4.70970630529337
216 70 8 0 11.4697043355647 0.354335986021906 4.70970630529337
217 70 7 0 11.7097043355647 -0.575664013978094 4.70970630529337
218 71 7 0 7.99459599584341 14.4208389489818 1.86009491910227
219 71 8 0 8.95459599584341 14.4208389489818 1.86009491910227
220 71 7 0 9.19459599584341 13.4908389489818 1.86009491910227
221 72 7 0 11.7021565690823 7.79071026871912 12.9924487858079
222 72 8 0 12.6621565690823 7.79071026871912 12.9924487858079
223 72 7 0 12.9021565690823 6.86071026871912 12.9924487858079
224 73 7 0 10.7228690134082 1.72200638376176 9.79509335942566
225 73 8 0 11.6828690134082 1.72200638376176 9.79509335942566
226 73 7 0 11.9228690134082 0.792006383761763 9.79509335942566
227 74 7 0 4.12630088671111 4.08056686789729 11.097858682042
228 74 8 0 5.08630088671111 4.08056686789729 11.097858682042
229 74 7 0 5.32630088671111 3.15056686789729 11.097858682042
230 75 7 0 2.31772468934767 1.80006596533582 7.05504764802754
231 75 8 0 3.27772468934767 1.80006596533582 7.05504764802754
232 75 7 0 3.51772468934767 0.870065965335816 7.05504764802754
233 76 7 0 1.63533214174211 14.2859412454441 10.545479238499
234 76 8 0 2.59533214174211 14.2859412454441 10.545479238499
235 76 7 0 2.83533214174211 13.3559412454441 10.545479238499
236 77 7 0 1.16500243937597 9.92101973894984 5.20205320324749
237 77 8 0 2.12500243937597 9.92101973894984 5.20205320324749
238 77 7 0 2.36500243937597 8.99101973894984 5.20205320324749
239 78 7 0 12.2466063655168 7.08011270425282 2.64734662254341
240 78 8 0 13.2066063655168 7.08011270425282 2.64734662254341
241 78 7 0 13.4466063655168 6.15011270425282 2.64734662254341
242 79 7 0 1.56753800620325 11.4791979784518 6.30589181673713
243 79 8 0 2.52753800620325 11.4791979784518 6.30589181673713
244 79 7 0 2.76753800620325 10.5491979784518 6.30589181673713
245 80 7 0 6.91484850875102 5.82694159745239 8.58311178046279
246 80 8 0 7.87484850875102 5.82694159745239 8.58311178046279
247 80 7 0 8.11484850875102 4.89694159745239 8.58311178046279
248 81 7 0 13.8059524171706 3.09896892792545 2.67607956659049
249 81 8 0 14.7659524171706 3.09896892792545 2.67607956659049
250 81 7 0 15.0059524171706 2.16896892792545 2.67607956659049
251 82 7 0 11.9608271964546 11.5125017559063 1.45712649333291
252 82 8 0 12.9208271964546 11.5125017559063 1.45712649333291
253 82 7 0 13.1608271964546 10.5825017559063 1.45712649333291
254 83 7 0 2.19319612995721 11.8527810477559 5.09142581024207
255 83 8 0 3.15319612995721 11.8527810477559 5.09142581024207
256 83 7 0 3.39319612995721 10.9227810477559 5.09142581024207
257 84 7 0 3.55066933829337 1.20150385581888 1.59573022741824
258 84 8 0 4.51066933829337 1.20150385581888 1.59573022741824
259 84 7 0 4.75066933829337 0.271503855818883 1.59573022741824
260 85 7 0 10.458049268201 7.74447350803763 7.82676258240826
261 85 8 0 11.418049268201 7.74447350803763 7.82676258240826
262 85 7 0 11.658049268201 6.81447350803763 7.82676258240826
263 86 7 0 8.48095850131474 3.21815673070028 14.4646912277676
264 86 8 0 9.44095850131474 3.21815673070028 14.4646912277676
265 86 7 0 9.68095850131474 2.28815673070028 14.4646912277676
266 87 7 0 13.689859663574 1.54342045466416 6.18386899586767
267 87 8 0 14.649859663574 1.54342045466416 6.18386899586767
268 87 7 0 14.889859663574 0.613420454664156 6.18386899586767
269 88 7 0 10.9694548432901 8.24709230609238 3.3615234028548
270 88 8 0 11.9294548432902 8.24709230609238 3.3615234028548
271 88 7 0 12.1694548432902 7.31709230609238 3.3615234028548
272 89 7 0 0.358898396808654 5.33197507536039 11.4804336964153
273 89 8 0 1.31889839680865 5.33197507536039 11.4804336964153
274 89 7 0 1.55889839680865 4.40197507536039 11.4804336964153
275 90 7 0 8.54942229503766 5.23396718589589 3.00231764442287
276 90 8 0 9.50942229503766 5.23396718589589 3.00231764442287
277 90 7 0 9.74942229503766 4.30396718589589 3.00231764442287
278 91 7 0 9.92192761899903 7.09080600104295 2.60868948418647
279 91 8 0 10.881927618999 7.09080600104295 2.60868948418647
280 91 7 0 11.121927618999 6.16080600104295 2.60868948418647
281 92 7 0 7.44101604723372 11.6110661129374 2.54943785257638
282 92 8 0 8.40101604723372 11.6110661129374 2.54943785257638
283 92 7 0 8.64101604723372 10.6810661129374 2.54943785257638
284 93 7 0 12.1929588254727 0.860009362632409 14.9847280047834
285 93 8 0 13.1529588254727 0.860009362632409 14.9847280047834
286 93 7 0 13.3929588254727 -0.0699906373675913 14.9847280047834
287 94 7 0 5.40513497821055 11.3000330379605 8.88539806357585
288 94 8 0 6.36513497821055 11.3000330379605 8.88539806357585
289 94 7 0 6.60513497821055 10.3700330379605 8.88539806357585
290 95 7 0 10.4127235994395 5.95525633584708 11.1272418592125
291 95 8 0 11.3727235994395 5.95525633584708 11.1272418592125
292 95 7 0 11.6127235994395 5.02525633584708 11.1272418592125
293 96 7 0 12.2592851116508 5.27450991369784 13.6372186685912
294 96 8 0 13.2192851116508 5.27450991369784 13.6372186685912
295 96 7 0 13.4592851116508 4.34450991369784 13.6372186685912
296 97 7 0 1.80412658650428 2.48100875102915 9.69241469283588
297 97 8 0 2.76412658650428 2.48100875102915 9.69241469283588
298 97 7 0 3.00412658650428 1.55100875102915 9.69241469283588
299 98 7 0 -0.307599411606789 3.48132205935195 0.24412983795628
300 98 8 0 0.652400588393211 3.48132205935195 0.24412983795628
301 98 7 0 0.892400588393211 2.55132205935195 0.24412983795628
302 99 7 0 11.1123690479156 1.0944257412944 7.31349626323208
303 99 8 0 12.0723690479156 1.0944257412944 7.31349626323208
304 99 7 0 12.3123690479156 0.164425741294399 7.31349626323208
305 100 7 0 1.76172487481497 2.64003055327572 7.50535626662895
306 100 8 0 2.72172487481497 2.64003055327572 7.50535626662895
307 100 7 0 2.96172487481497 1.71003055327572 7.50535626662895
308 101 7 0 4.30120219054632 10.0452363308892 7.18240595189855
309 101 8 0 5.26120219054632 10.0452363308892 7.18240595189855
310 101 7 0 5.50120219054632 9.11523633088917 7.18240595189855
311 102 7 0 6.65654113559984 7.71214585908689 9.2110355605837
312 102 8 0 7.61654113559984 7.71214585908689 9.2110355605837
313 102 7 0 7.85654113559984 6.78214585908689 9.2110355605837
314 103 7 0 8.93862012002617 7.85116656840779 0.594299799995497
315 103 8 0 9.89862012002617 7.85116656840779 0.594299799995497
316 103 7 0 10.1386201200262 6.92116656840779 0.594299799995497
317 104 7 0 14.2225144318957 13.2321423424315 7.31688991072588
318 104 8 0 15.1825144318957 13.2321423424315 7.31688991072588
319 104 7 0 15.4225144318957 12.3021423424315 7.31688991072588
320 105 7 0 12.3559095365647 2.40991620387882 12.2963531326968
321 105 8 0 13.3159095365647 2.40991620387882 12.2963531326968
322 105 7 0 13.5559095365647 1.47991620387882 12.2963531326968
323 106 7 0 7.5182400543429 12.8766004989762 12.1044623537455
324 106 8 0 8.4782400543429 12.8766004989762 12.1044623537455
325 106 7 0 8.7182400543429 11.9466004989762 12.1044623537455
326 107 7 0 6.7787856997177 5.04499651881866 11.0669484303799
327 107 8 0 7.7387856997177 5.04499651881866 11.0669484303799
328 107 7 0 7.9787856997177 4.11499651881866 11.0669484303799
329 108 7 0 8.77498013360426 14.3395850590337 9.26133619621396
330 108 8 0 9.73498013360426 14.3395850590337 9.26133619621396
331 108 7 0 9.97498013360426 13.4095850590337 9.26133619621396
332 109 7 0 13.3923608860653 8.27193132176995 9.81679598917253
333 109 8 0 14.3523608860653 8.27193132176995 9.81679598917253
334 109 7 0 14.5923608860653 7.34193132176995 9.81679598917253
335 110 7 0 12.9066583576798 6.88967472216114 7.90400147438049
336 110 8 0 13.8666583576798 6.88967472216114 7.90400147438049
337 110 7 0 14.1066583576798 5.95967472216114 7.90400147438049
338 111 7 0 -0.561803249437362 1.74816427793354 14.4801844912581
339 111 8 0 0.398196750562638 1.74816427793354 14.4801844912581
340 111 7 0 0.638196750562638 0.818164277933538 14.4801844912581
341 112 7 0 10.5883767669741 4.16383839369751 12.0009568613023
342 112 8 0 11.5483767669741 4.16383839369751 12.0009568613023
343 112 7 0 11.7883767669741 3.23383839369752 12.0009568613023
344 113 7 0 4.75067929292098 8.219058353398 5.28215109952725
345 113 8 0 5.71067929292098 8.219058353398 5.28215109952725
346 113 7 0 5.95067929292098 7.289058353398 5.28215109952725
347 114 7 0 2.31790775011294 2.52529618836939 11.3091946905479
348 114 8 0 3.27790775011294 2.52529618836939 11.3091946905479
349 114 7 0 3.51790775011294 1.59529618836939 11.3091946905479
350 115 7 0 6.42983632438816 8.35246826912276 13.7151037494186
351 115 8 0 7.38983632438816 8.35246826912276 13.7151037494186
352 115 7 0 7.62983632438816 7.42246826912276 13.7151037494186
353 116 7 0 5.35011337531731 8.26877432683483 8.16621748614125
354 116 8 0 6.31011337531731 8.26877432683483 8.16621748614125
355 116 7 0 6.55011337531731 7.33877432683483 8.16621748614125
356 117 7 0 -0.5226600969024 4.66673491563648 13.8072695746087
357 117 8 0 0.4373399030976 4.66673491563648 13.8072695746087
358 117 7 0 0.6773399030976 3.73673491563648 13.8072695746087
359 118 7 0 13.8032643058989 1.06668623088859 8.39898352045566
360 118 8 0 14.7632643058989 1.06668623088859 8.39898352045566
361 118 7 0 15.0032643058989 0.13668623088859 8.39898352045566
362 119 7 0 14.2613155538868 2.92631055851467 9.26720296614803
363 119 8 0 15.2213155538868 2.92631055851467 9.26720296614803
364 119 7 0 15.4613155538868 1.99631055851467 9.26720296614803
365 120 7 0 14.0360882451944 11.5414347305801 13.3685572980903
366 120 8 0 14.9960882451944 11.5414347305801 13.3685572980903
367 120 7 0 15.2360882451944 10.6114347305801 13.3685572980903
368 121 7 0 9.48630857907236 2.71979248890653 8.14298161072657
369 121 8 0 10.4463085790724 2.71979248890653 8.14298161072657
370 121 7 0 10.6863085790724 1.78979248890653 8.14298161072657
371 122 7 0 9.59167029635981 8.23145199608058 11.0146752849687
372 122 8 0 10.5516702963598 8.23145199608058 11.0146752849687
373 122 7 0 10.7916702963598 7.30145199608058 11.0146752849687
374 123 7 0 -0.411117057809606 14.4668345483392 1.77444868837483
375 123 8 0 0.548882942190394 14.4668345483392 1.77444868837483
376 123 7 0 0.788882942190394 13.5368345483392 1.77444868837483
377 124 7 0 2.06609660337679 1.64757857256569 6.76879651844501
378 124 8 0 3.02609660337679 1.64757857256569 6.76879651844501
379 124 7 0 3.26609660337679 0.71757857256569 6.76879651844501
380 125 7 0 0.533995638107881 9.62443286361173 9.63004308985546
381 125 8 0 1.49399563810788 9.62443286361173 9.63004308985546
382 125 7 0 1.73399563810788 8.69443286361173 9.63004308985546
383 126 7 0 11.7526804881357 12.33511524898 6.99152270914055
384 126 8 0 12.7126804881357 12.33511524898 6.99152270914055
385 126 7 0 12.9526804881357 11.40511524898 6.99152270914055
386 127 7 0 13.2606549134664 7.86180709064007 8.5882314434275
387 127 8 0 14.2206549134664 7.86180709064007 8.5882314434275
388 127 7 0 14.4606549134664 6.93180709064007 8.5882314434275
389 128 7 0 2.59716442946345 9.23204727861099 0.242121987976134
390 128 8 0 3.55716442946345 9.23204727861099 0.242121987976134
391 128 7 0 3.79716442946345 8.30204727861099 0.242121987976134
392 129 7 0 12.5671434499975 4.6756428984832 0.464279958978295
393 129 8 0 13.5271434499975 4.6756428984832 0.464279958978295
394 129 7 0 13.7671434499975 3.7456428984832 0.464279958978295
395 130 7 0 2.47272505352274 1.69237273087725 4.66021815198474
396 130 8 0 3.43272505352274 1.69237273087725 4.66021815198474
397 130 7 0 3.67272505352274 0.76237273087725 4.66021815198474
398 131 7 0 6.28478516402654 15.2011593528464 12.6430099981371
399 131 8 0 7.24478516402654 15.2011593528464 12.6430099981371
400 131 7 0 7.48478516402654 14.2711593528464 12.6430099981371
401 132 7 0 1.9613811971806 11.1822143177874 7.64042884809896
402 132 8 0 2.9213811971806 11.1822143177874 7.64042884809896
403 132 7 0 3.1613811971806 10.2522143177874 7.64042884809896
404 133 7 0 6.04655166316777 3.3363485154137 13.0778172682039
405 133 8 0 7.00655166316777 3.3363485154137 13.0778172682039
406 133 7 0 7.24655166316778 2.4063485154137 13.0778172682039
407 134 7 0 7.84600287021138 4.40011721378192 10.8461440214887
408 134 8 0 8.80600287021138 4.40011721378192 10.8461440214887
409 134 7 0 9.04600287021138 3.47011721378192 10.8461440214887
410 135 7 0 9.79449504448101 4.70312925795093 14.318537801737
411 135 8 0 10.754495044481 4.70312925795093 14.318537801737
412 135 7 0 10.994495044481 3.77312925795093 14.318537801737
413 136 7 0 12.0862996699009 8.25514388544485 9.86370236612856
414 136 8 0 13.0462996699009 8.25514388544485 9.86370236612856
415 136 7 0 13.2862996699009 7.32514388544485 9.86370236612856
416 137 7 0 12.2697870286368 0.845674320999533 12.226400031941
417 137 8 0 13.2297870286368 0.845674320999533 12.226400031941
418 137 7 0 13.4697870286368 -0.0843256790004671 12.226400031941
419 138 7 0 4.39631588218734 3.05792987271212 3.22851973003708
420 138 8 0 5.35631588218734 3.05792987271212 3.22851973003708
421 138 7 0 5.59631588218734 2.12792987271212 3.22851973003708
422 139 7 0 6.05858160110191 0.406842246130109 7.1618134144228
423 139 8 0 7.01858160110191 0.406842246130109 7.1618134144228
424 139 7 0 7.25858160110191 -0.523157753869891 7.1618134144228
425 140 7 0 2.13826402134262 3.79986310884357 10.9230449516326
426 140 8 0 3.09826402134262 3.79986310884357 10.9230449516326
427 140 7 0 3.33826402134262 2.86986310884356 10.9230449516326
428 141 7 0 12.2023734559491 0.38806507172063 9.07746456563473
429 141 8 0 13.1623734559491 0.38806507172063 9.07746456563473
430 141 7 0 13.4023734559491 -0.54193492827937 9.07746456563473
431 142 7 0 10.032592444187 9.91653265472502 5.54345816024579
432 142 8 0 10.992592444187 9.91653265472502 5.54345816024579
433 142 7 0 11.232592444187 8.98653265472502 5.54345816024579
434 143 7 0 0.637205553213134 11.7616501117032 4.63326962781139
435 143 8 0 1.59720555321313 11.7616501117032 4.63326962781139
436 143 7 0 1.83720555321313 10.8316501117032 4.63326962781139
437 144 7 0 0.834101323708892 1.96161314420402 6.05519068543799
438 144 8 0 1.79410132370889 1.96161314420402 6.05519068543799
439 144 7 0 2.03410132370889 1.03161314420402 6.05519068543799
440 145 7 0 8.20002035980113 9.54696871497668 5.17519500106573
441 145 8 0 9.16002035980113 9.54696871497668 5.17519500106573
442 145 7 0 9.40002035980113 8.61696871497668 5.17519500106573
443 146 7 0 11.7900464432035 8.1772261047177 2.32374655315652
444 146 8 0 12.7500464432035 8.1772261047177 2.32374655315652
445 146 7 0 12.9900464432035 7.2472261047177 2.32374655315652
446 147 7 0 13.2155345768854 7.15374354314059 11.7746684700251
447 147 8 0 14.1755345768854 7.15374354314059 11.7746684700251
448 147 7 0 14.4155345768854 6.22374354314059 11.7746684700251
449 148 7 0 13.898503554957 9.49434817809612 12.67300692969
450 148 8 0 14.858503554957 9.49434817809612 12.67300692969
451 148 7 0 15.098503554957 8.56434817809612 12.67300692969
452 149 7 0 0.703179561970755 7.45177655871026 5.57871263008565
453 149 8 0 1.66317956197076 7.45177655871026 5.57871263008565
454 149 7 0 1.90317956197076 6.52177655871026 5.57871263008565
455 150 7 0 4.6832932058908 9.30426943389699 13.9307870459743
456 150 8 0 5.6432932058908 9.30426943389699 13.9307870459743
457 150 7 0 5.8832932058908 8.37426943389699 13.9307870459743
458 151 7 0 3.33526828835718 0.659270318401977 14.2230854008812
459 151 8 0 4.29526828835718 0.659270318401977 14.2230854008812
460 151 7 0 4.53526828835718 -0.270729681598023 14.2230854008812
461 152 7 0 5.33781723163091 12.498064143993 1.46872171433643
462 152 8 0 6.29781723163091 12.498064143993 1.46872171433643
463 152 7 0 6.53781723163091 11.568064143993 1.46872171433643
464 153 7 0 9.7980693953298 9.8957726118993 3.85296838358045
465 153 8 0 10.7580693953298 9.8957726118993 3.85296838358045
466 153 7 0 10.9980693953298 8.9657726118993 3.85296838358045
467 154 7 0 12.2043231983855 1.95739880012348 11.3541098556016
468 154 8 0 13.1643231983855 1.95739880012348 11.3541098556016
469 154 7 0 13.4043231983855 1.02739880012348 11.3541098556016
470 155 7 0 4.62189483267255 11.9475482489821 2.12284502922557
471 155 8 0 5.58189483267255 11.9475482489821 2.12284502922557
472 155 7 0 5.82189483267255 11.0175482489821 2.12284502922557
473 156 7 0 9.98257870713249 12.8546656451095 5.78348190290853
474 156 8 0 10.9425787071325 12.8546656451095 5.78348190290853