LAMMPS (29 Sep 2021 - Update 1)
# Test LAMMPS input file for single DeFDe

# Initialize simulation

clear

units real
atom_style full
boundary p p p
dielectric 1
special_bonds dreiding

bond_style harmonic
angle_style harmonic
dihedral_style harmonic
improper_style umbrella
pair_style hybrid/overlay hbond/dreiding/lj 4 9.0 11.0 90 lj/cut 8.50000

# Read data file
read_data frag5.dat
Reading data file ...
  triclinic box = (0.0000000 0.0000000 0.0000000) to (15.000000 15.000000 15.000000) with tilt (0.0000000 0.0000000 0.0000000)
  2 by 4 by 4 MPI processor grid
  reading atoms ...
  1510 atoms
  scanning bonds ...
  3 = max bonds/atom
  scanning angles ...
  6 = max angles/atom
  scanning dihedrals ...
  10 = max dihedrals/atom
  scanning impropers ...
  1 = max impropers/atom
  reading bonds ...
  1009 bonds
  reading angles ...
  513 angles
  reading dihedrals ...
  13 dihedrals
  reading impropers ...
  2 impropers
Finding 1-2 1-3 1-4 neighbors ...
  special bond factors lj:    0        0        1       
  special bond factors coul:  0        0        1       
     4 = max # of 1-2 neighbors
     5 = max # of 1-3 neighbors
     8 = max # of special neighbors
  special bonds CPU = 0.002 seconds
  read_data CPU = 0.017 seconds

# Dreiding potential information

bond_coeff 1 700 1.22
bond_coeff 2 350 1.8
bond_coeff 3 350 1.43
bond_coeff 4 350 1.09
bond_coeff 5 700 1.275
bond_coeff 6 350 0.935
bond_coeff 7 350 1.36
bond_coeff 8 350 0.98

angle_coeff 1 50 92.1
angle_coeff 2 50 109.471
angle_coeff 3 50 120
angle_coeff 4 50 120
angle_coeff 5 50 104.51

dihedral_coeff 1 0.333333333333333 -1 3
dihedral_coeff 2 0.0833333333333333 -1 6
dihedral_coeff 3 5.625 -1 2

improper_coeff 1 40 0

pair_coeff 1 1 lj/cut 0.0957 3.4046
pair_coeff 1 2 lj/cut 0.18144089946867 3.70412445795224
pair_coeff 1 3 lj/cut 0.0953995283007206 3.64309650983885
pair_coeff 1 4 lj/cut 0.0953995283007206 3.64309650983885
pair_coeff 1 5 lj/cut 0.0860649754545948 3.53100349192691
pair_coeff 1 6 lj/cut 0.0381397430510485 3.29813538230316
pair_coeff 1 7 lj/cut 0.0030935416596516 3.29710294046152
pair_coeff 1 8 lj/cut 0.0957 3.4046
pair_coeff 2 2 lj/cut 0.344 4.03
pair_coeff 2 3 lj/cut 0.180871224908773 3.96360303259547
pair_coeff 2 4 lj/cut 0.180871224908773 3.96360303259547
pair_coeff 2 5 lj/cut 0.163173527264688 3.84164847428809
pair_coeff 2 6 lj/cut 0.0723104418462507 3.58829346625941
pair_coeff 2 7 lj/cut 0.00586515131944607 3.58717019389936
pair_coeff 2 8 lj/cut 0.18144089946867 3.70412445795224
pair_coeff 3 3 lj/cut 0.0951 3.8983
pair_coeff 3 4 lj/cut 0.0951 3.8983
pair_coeff 3 5 lj/cut 0.0857947550844456 3.77835472527395
pair_coeff 3 6 lj/cut 0.0380199947396104 3.52917391183829
pair_coeff 3 7 lj/cut 0.00308382878902186 3.52806914614779
pair_coeff 3 8 lj/cut 0.0953995283007206 3.64309650983885
pair_coeff 4 4 lj/cut 0.0951 3.8983
pair_coeff 4 5 lj/cut 0.0857947550844456 3.77835472527395
pair_coeff 4 6 lj/cut 0.0380199947396104 3.52917391183829
pair_coeff 4 7 lj/cut 0.00308382878902186 3.52806914614779
pair_coeff 4 8 lj/cut 0.0953995283007206 3.64309650983885
pair_coeff 5 5 lj/cut 0.0774 3.6621
pair_coeff 5 6 lj/cut 0.0342998542270955 3.42058613398347
pair_coeff 5 7 lj/cut 0.00278208554864871 3.41951536039831
pair_coeff 5 8 lj/cut 0.0860649754545948 3.53100349192691
pair_coeff 6 6 lj/cut 0.0152 3.195
pair_coeff 6 7 lj/cut 0.0012328828005938 3.19399984345648
pair_coeff 6 8 lj/cut 0.0381397430510485 3.29813538230316
pair_coeff 7 7 lj/cut 1e-04 3.193
pair_coeff 7 8 lj/cut 0.0030935416596516 3.29710294046152
pair_coeff 8 8 lj/cut 0.0957 3.4046
pair_coeff 1 5 hbond/dreiding/lj 7 j 9.50 2.75 4 9.0 11.0 90
pair_coeff 5 5 hbond/dreiding/lj 7 j 9.50 2.75 4 9.0 11.0 90
pair_coeff 5 8 hbond/dreiding/lj 7 i 9.50 2.75 4 9.0 11.0 90
pair_coeff 1 8 hbond/dreiding/lj 7 j 9.50 2.75 4 9.0 11.0 90
pair_coeff 5 8 hbond/dreiding/lj 7 j 9.50 2.75 4 9.0 11.0 90
pair_coeff 8 8 hbond/dreiding/lj 7 j 9.50 2.75 4 9.0 11.0 90

neighbor 2 bin
neigh_modify every 2 one 10000

# Gemoetric relaxation
fix 1 all box/relax iso 1.0 vmax 0.001
minimize 1.0e-4 1.0e-6 10000 10000
WARNING: Using 'neigh_modify every 1 delay 0 check yes' setting during minimization (../min.cpp:188)
Neighbor list info ...
  update every 1 steps, delay 0 steps, check yes
  max neighbors/atom: 10000, page size: 100000
  master list distance cutoff = 13
  ghost atom cutoff = 13
  binsize = 6.5, bins = 3 3 3
  3 neighbor lists, perpetual/occasional/extra = 3 0 0
  (1) pair hbond/dreiding/lj, perpetual, skip from (3)
      attributes: full, newton on
      pair build: skip
      stencil: none
      bin: none
  (2) pair lj/cut, perpetual, half/full from (3)
      attributes: half, newton on
      pair build: halffull/newton
      stencil: none
      bin: none
  (3) neighbor class addition, perpetual
      attributes: full, newton on
      pair build: full/bin
      stencil: full/bin/3d
      bin: standard
Per MPI rank memory allocation (min/avg/max) = 14.52 | 14.88 | 15.45 Mbytes
Step Temp E_pair E_mol TotEng Press Volume 
       0            0 4.9934301e+16    262.56988 4.9934301e+16 4.0579744e+18         3375 
    4951            0   -971.59586    20.261666    -951.3342    128.81052    38315.161 
Loop time of 4.02554 on 32 procs for 4951 steps with 1510 atoms

99.9% CPU use with 32 MPI tasks x no OpenMP threads

Minimization stats:
  Stopping criterion = energy tolerance
  Energy initial, next-to-last, final = 
    4.99343013989808e+16  -950.742242827425  -950.824631067249
  Force two-norm initial, final = 5.8794658e+18 118.14616
  Force max component initial, final = 3.4525490e+18 95.331287
  Final line search alpha, max atom move = 2.0388867e-05 0.0019436969
  Iterations, force evaluations = 4951 4953

MPI task timing breakdown:
Section |  min time  |  avg time  |  max time  |%varavg| %total
---------------------------------------------------------------
Pair    | 1.2176     | 2.4696     | 3.2346     |  33.8 | 61.35
Bond    | 0.0058497  | 0.010196   | 0.020457   |   2.5 |  0.25
Neigh   | 0.086273   | 0.086491   | 0.086788   |   0.0 |  2.15
Comm    | 0.37045    | 1.1337     | 2.3865     |  49.8 | 28.16
Output  | 0          | 0          | 0          |   0.0 |  0.00
Modify  | 0          | 0          | 0          |   0.0 |  0.00
Other   |            | 0.3256     |            |       |  8.09

Nlocal:        47.1875 ave          61 max          28 min
Histogram: 2 1 2 2 3 6 5 3 4 4
Nghost:        1905.19 ave        1965 max        1861 min
Histogram: 5 8 2 1 2 1 4 4 4 1
Neighs:        4756.53 ave        6252 max        2481 min
Histogram: 2 2 0 4 1 8 2 2 5 6

Total # of neighbors = 152209
Ave neighs/atom = 100.80066
Ave special neighs/atom = 2.0158940
Neighbor list builds = 89
Dangerous builds = 0

# MD simulation
velocity all create 300.0 12345 rot yes dist gaussian
timestep 1.0
fix 2 all nvt temp 300.0 300.0 1

# Compute interaction energy
group WAT molecule <> 2 501
1500 atoms in group WAT
group MOL molecule 1
10 atoms in group MOL

compute w WAT group/group MOL pair yes
fix 3 all ave/time 10 5 100 c_w file outa

# Outputs
thermo 100 # Output thermodynamic data every nth step
#dump mf1 all xyz 10000 mol_*.xyz

# Run
run 1000000
Neighbor list info ...
  update every 2 steps, delay 10 steps, check yes
  max neighbors/atom: 10000, page size: 100000
  master list distance cutoff = 13
  ghost atom cutoff = 13
  binsize = 6.5, bins = 6 6 6
  4 neighbor lists, perpetual/occasional/extra = 3 1 0
  (1) pair hbond/dreiding/lj, perpetual, skip from (4)
      attributes: full, newton on
      pair build: skip
      stencil: none
      bin: none
  (2) pair lj/cut, perpetual, half/full from (4)
      attributes: half, newton on
      pair build: halffull/newton
      stencil: none
      bin: none
  (3) compute group/group, occasional, copy from (2)
      attributes: half, newton on
      pair build: copy
      stencil: none
      bin: none
  (4) neighbor class addition, perpetual
      attributes: full, newton on
      pair build: full/bin
      stencil: full/bin/3d
      bin: standard
Per MPI rank memory allocation (min/avg/max) = 13.38 | 13.41 | 13.92 Mbytes
Step Temp E_pair E_mol TotEng Press Volume 
    4951          300   -971.59586    20.261666    398.07851    1738.7405    38315.161 
    5000    312.78153   -1041.0844     208.3104    574.13056    294.16201    38315.161 
    5100    291.19164   -1048.7682    207.10812     468.1323   -170.44211    38315.161 
    5200    287.01346   -1059.4699    166.00958    397.53841    280.23569    38315.161 
    5300    303.51764   -1037.5745    183.15218    510.81291    453.62316    38315.161 
    5400     302.9083   -1067.3088    184.32884    479.51441    507.50115    38315.161 
    5500     305.6587   -1092.7085     181.4276    463.58487    890.13761    38315.161 
    5600    290.64613   -1013.8112    183.55143    477.07886    804.54787    38315.161 
    5700    299.72611   -1040.3211    196.45956    504.31922    1046.4408    38315.161 
    5800    302.07705   -1110.5282    185.23477    433.46194    497.38362    38315.161 
    5900    295.27765   -1031.7799    182.86663    479.25812    563.03123    38315.161 
    6000     298.8092   -1061.7686     182.9662     465.2541    870.88958    38315.161 
    6100    300.94532   -1055.9078    173.48379    471.24083    560.02717    38315.161 
    6200    311.78102   -1096.0301    195.19604    501.57019    358.37898    38315.161 
    6300    306.66974   -1123.0936    190.19417    446.51408    66.311385    38315.161 
    6400    304.56349   -1024.6902    208.37366    553.62288    498.77217    38315.161 
    6500    302.24738   -1007.0761    205.07717    557.52252    356.03504    38315.161 
    6600     292.3607   -1066.7187    205.90888    454.24097    198.33285    38315.161 
    6700    299.41538     -1099.36     199.8741     447.2972  0.060810609    38315.161 
    6800    294.40739   -1107.7187    218.38477    434.92301    66.991038    38315.161 
    6900    298.65563   -1143.0163    196.75916     397.1085    196.36973    38315.161 
    7000    301.21031   -1120.4791    216.54494    450.92252    184.00786    38315.161 
    7100    305.31286   -1065.7297    214.49822    522.07873    956.27666    38315.161 
    7200    304.97375   -1091.1326    187.85008    468.50237    393.87569    38315.161 
    7300    312.39037   -1059.4224     216.4387    562.16146    477.64022    38315.161 
    7400    301.62024   -1098.5274    221.49863    479.67189    729.83535    38315.161 
    7500     305.6031   -1148.3344    200.75771    427.03903    453.99144    38315.161 
    7600    307.81584   -1134.0746    213.03989    463.53394    658.21294    38315.161 
    7700    295.92625   -1161.4409    219.27636    388.92429    937.86908    38315.161 
    7800    298.56718   -1128.3957    211.67774    426.24982    445.08051    38315.161 
    7900    305.67358   -1131.0537    208.54507    452.42404    345.86503    38315.161 
    8000    292.44888   -1142.4646    217.09519    390.07803      381.846    38315.161 
    8100    305.42011   -1171.9849    213.02046    414.82817    320.10683    38315.161 
    8200    292.77938   -1168.8876    216.72974    364.77615    275.04713    38315.161 
    8300    308.01785   -1147.0175    214.22588    452.68572    469.84997    38315.161 
    8400    299.64299   -1123.9386    233.80764    457.67589     659.3175    38315.161 
    8500    299.95752   -1151.0027    226.95955     425.1785    679.20318    38315.161 
    8600    307.47918   -1124.7484    217.35488    475.66088    837.99906    38315.161 
    8700    289.87881   -1150.2309    220.69277    374.34907    516.51468    38315.161 
    8800    300.57517   -1158.6759    224.55187    417.87578    426.92086    38315.161 
    8900    292.32454   -1109.4606    244.52957    449.95712    819.93309    38315.161 
    9000    293.41177   -1174.1392    215.42469    361.06405    157.50659    38315.161 
    9100    296.37295   -1128.2651    230.45768    435.29072   -44.285656    38315.161 
    9200    309.41372   -1117.9472    245.84465    519.65349    421.70549    38315.161 
    9300    301.91793   -1160.9446    235.03524     432.1303    186.38198    38315.161 
    9400    303.69818   -1128.6531    249.85072    487.24485    294.42406    38315.161 
    9500    290.42544   -1133.0799    236.80708    410.07316   -132.12364    38315.161 
    9600    306.66032   -1127.2264    248.10824    500.25296     425.2338    38315.161 
    9700    303.02901   -1154.2269    241.25441    450.06481   -234.38839    38315.161 
    9800    298.59399   -1139.1585    234.94176    438.87166    101.86568    38315.161 
    9900    298.48249   -1146.6742    240.42276    436.33545    7.7832513    38315.161 
   10000    308.33564   -1135.3585    244.05162    495.59988   -492.60736    38315.161 
   10100    306.51267   -1159.1726    243.10531    462.63972    331.69173    38315.161 
   10200    291.31589   -1131.9721    242.77153    421.15068    -503.3398    38315.161 
   10300    311.36969   -1117.7402    263.04717    545.86103    86.632695    38315.161 
   10400    298.61157   -1110.0007    224.74497    457.91171    402.15775    38315.161 
   10500    306.46954   -1073.1037    253.47931     558.8886    678.77608    38315.161 
   10600    292.96927   -1071.2678    260.17868    506.69911    786.53478    38315.161 
   10700    292.10983   -1118.2584    244.29097    439.95496    575.04023    38315.161 
   10800    300.85166   -1142.1246    253.54791    464.66675    303.53803    38315.161 
   10900    294.53959    -1141.309    258.17544    441.71797    365.87781    38315.161 
   11000     306.6406   -1132.7637    255.10493    501.62364    406.95877    38315.161 
   11100     291.1977   -1175.0106    251.33107    386.14009    472.05879    38315.161 
   11200    299.57258   -1222.1941     250.7538    376.04988    368.91502    38315.161 
   11300    301.54556   -1191.0033    256.62184    421.98325    811.35801    38315.161 
   11400    304.67771   -1189.3761     257.5602    438.63734    298.18749    38315.161 
   11500    304.66533   -1156.2791    263.92349    478.04193    350.20156    38315.161 
   11600    299.52337   -1185.6317    264.36326    426.00037    28.546447    38315.161 
   11700    302.73674   -1149.2973     247.0611    459.48653    272.89583    38315.161 
   11800    297.95642   -1154.6269    268.83155     454.4253    422.43076    38315.161 
   11900    308.80057   -1171.8087    258.10311    475.29245    103.34001    38315.161 
   12000    293.34225   -1186.4594     261.0875      394.094   -81.293108    38315.161 
   12100    292.23984   -1188.6522    267.02018    392.87518    297.71429    38315.161 
   12200    292.27832   -1172.4922    268.99155    411.17961    190.97391    38315.161 
   12300    304.37556   -1176.4483    264.31479    456.96067    319.90544    38315.161 
   12400     290.6356   -1146.9752    261.14974    421.46572     484.7141    38315.161 
   12500    307.63082   -1133.7508    272.80766    522.79336    757.32595    38315.161 
   12600    295.78826   -1103.1744    270.72265    498.01635    561.86144    38315.161 
   12700    302.88787    -1162.438    288.87135    488.83579    361.20757    38315.161 
   12800    310.42353   -1186.5371    271.83006    481.59114    400.59115    38315.161 
   12900    308.76241   -1158.2642    263.53451    494.09674    217.89931    38315.161 
   13000    298.37021   -1188.2688      292.434    446.24706   -67.686998    38315.161 
   13100     298.8037   -1191.7975     270.8116    423.04581    383.01275    38315.161 
   13200    293.57274   -1176.7411    277.21461    420.97612    62.163267    38315.161 
   13300    303.59242   -1158.8819    283.44221    490.13193     262.5892    38315.161 
   13400    308.28949   -1193.0707    272.84624    466.47474    265.97916    38315.161 
   13500    304.28961   -1171.2105    280.09478    477.59182    473.38323    38315.161 
   13600    290.81467   -1196.6186    274.48178    385.95989    360.96705    38315.161 
   13700    299.36057   -1157.9667    274.66131    463.23112    377.19603    38315.161 
   13800    287.69506   -1172.1868    284.84552    406.72324    253.36337    38315.161 
   13900    310.22314    -1166.148    283.91489    513.16369    230.51963    38315.161 
   14000    295.63897   -1174.0038    282.97703    438.76982    67.006684    38315.161 
   14100    287.92766   -1193.0895    295.76144    397.78272    84.941531    38315.161 
   14200    290.51271   -1170.3956    282.10748    418.45042   -512.99492    38315.161 
   14300    292.87188   -1146.1597    281.33825    452.52873    238.25724    38315.161 
   14400    303.37114   -1166.2179    275.55871    473.91706   -122.86135    38315.161 
   14500    306.78229   -1178.0975    277.08223    478.90449    67.610421    38315.161 
   14600    292.48866   -1192.9396    287.81815    410.50498   -255.08082    38315.161 
   14700    307.38877   -1173.8391    282.96958    491.77822    259.03786    38315.161 
   14800    291.92898   -1196.0805    285.20686    402.23526    115.30166    38315.161 
   14900    289.12596   -1149.5894    296.70559      447.617   -64.195092    38315.161 
   15000    300.07395   -1203.6511    274.94953    421.04374    -68.61684    38315.161 
   15100    297.44582   -1193.4269    296.79059    441.28764    321.83905    38315.161 
   15200    308.01404   -1206.8536    264.44734    443.05394    374.69393    38315.161 
   15300    308.79638   -1208.0682    282.00041    462.91146    506.00201    38315.161 
   15400    303.02328   -1216.1493    293.67391     440.5362    914.61227    38315.161 
   15500    298.59561   -1189.1667    288.88182    442.81087    591.15537    38315.161 
   15600    299.84019   -1202.9528     290.3533    436.09432    909.84582    38315.161 
   15700    302.53576   -1174.1489    288.76627    475.43601    324.24045    38315.161 
   15800    296.97344   -1149.4306    286.22048    472.58902    355.74272    38315.161 
   15900    300.74363   -1158.7275    286.47346    480.50352    450.65055    38315.161 
   16000    299.75307   -1194.4237    292.68319    446.56153    434.58624    38315.161 
   16100    306.21127   -1188.7268    291.17573    479.80021    465.83778    38315.161 
   16200    297.69887   -1186.8227    268.60091    420.84034    334.57404    38315.161 
   16300    300.39776   -1173.7016    294.63941    472.13959    561.92682    38315.161 
   16400    297.78019   -1167.4746    295.68338    467.63672    496.76758    38315.161 
   16500    305.76483   -1217.7629    287.73557    445.31582    1016.4044    38315.161 
   16600    297.11126   -1204.3702    300.75499    432.80383    762.23023    38315.161 
   16700    292.27915   -1207.7687     284.8713    391.78667    864.14602    38315.161 
   16800    303.44917   -1232.1943    303.48006    436.21302    776.45686    38315.161 
   16900    300.37849   -1195.4936    288.21763    443.83918    568.56932    38315.161 
   17000    310.28548   -1209.7206    276.67024    462.62686    213.24343    38315.161 
   17100    299.96468   -1168.3465    299.35388    480.26123    525.54888    38315.161 
   17200    300.70916   -1198.2088    283.73665    438.13032    289.56014    38315.161 
   17300    310.33755   -1163.1486    295.31152    528.07432    218.47956    38315.161 
   17400    300.09067   -1217.0007    295.69994    428.51983    -219.8458    38315.161 
   17500    309.70409   -1216.8185    292.25698    468.50057    606.56905    38315.161 
   17600    309.47246   -1210.5569    302.80464    484.26796    280.88358    38315.161 
   17700    299.49893    -1208.704     300.0537    438.50856   -36.091534    38315.161 
   17800    304.99109   -1203.5932    298.20101    466.47062    460.39118    38315.161 
   17900    296.24351   -1198.2776    308.39827    442.63646    146.88618    38315.161 
   18000    284.93009   -1176.6714    294.22268    399.17886     192.6465    38315.161 
   18100    299.53789   -1212.4758    309.35518    444.21344    160.83617    38315.161 
   18200    300.04133   -1197.9273    302.94432    454.61567    238.96155    38315.161 
   18300    299.70547   -1231.3628    301.68555    418.41069    779.25797    38315.161 
   18400     303.3128   -1225.5024     319.0029    457.81428    164.97109    38315.161 
   18500    299.32774   -1209.2467    288.24376    425.38587    163.90556    38315.161 
   18600    295.05559   -1237.5831     303.3558     392.9453    -53.87283    38315.161 
   18700    301.49942     -1272.77    319.84037    403.22754   -249.52574    38315.161 
   18800    289.06742   -1199.0572    304.63827    405.81856   -88.237863    38315.161 
   18900    310.59936   -1220.6941    297.03172    473.42675    89.730318    38315.161 
   19000    305.61602   -1215.6347    302.62033    461.65946   -6.6402464    38315.161 
   19100    299.22192   -1222.1597    313.43687    437.19001   -307.14277    38315.161 
   19200    287.80556    -1199.329    317.64947    412.88209    531.13589    38315.161 
   19300    301.79224   -1241.7073    306.00713    421.77405    537.95029    38315.161 
   19400    292.94583   -1232.8215    309.39076    394.25201     622.7192    38315.161 
   19500    306.50921   -1179.0115    312.05316    511.73308    231.60082    38315.161 
   19600    300.63963   -1188.9818    313.74399    477.05201    539.18943    38315.161 
   19700    299.80048    -1226.442    310.63544    432.70866    427.81816    38315.161 
   19800    309.02599   -1238.1986    331.77347    483.58682     343.8606    38315.161 
   19900    294.38463   -1266.2416     314.2045    372.11744   -79.869602    38315.161 
   20000    298.71871   -1233.8264    304.74834    414.57141   -175.22717    38315.161 
   20100    301.93366   -1198.5204     336.8479    496.43793   -3.3808652    38315.161 
   20200    304.40648   -1222.4214    335.56279    482.37464    268.10882    38315.161 
   20300    310.21406   -1268.7591     296.0294    422.62632    85.309141    38315.161 
   20400    307.72128   -1246.6796    326.19671     463.6605    186.76037    38315.161 
   20500    305.16133   -1283.2378    322.67465    412.06547    122.73769    38315.161 
   20600    299.15071   -1267.7988    315.82244    393.61618    318.50159    38315.161 
   20700    295.75422   -1294.0448     323.3618    359.63204     192.5916    38315.161 
   20800    315.82893    -1243.737     330.8689     507.7438    53.562409    38315.161 
   20900    311.88346   -1234.3114    333.53292    502.08649    74.140825    38315.161 
   21000    295.48573   -1253.7304    324.24113    399.61808    322.36883    38315.161 
   21100    298.63051   -1267.4011    334.68323    410.53484    220.04839    38315.161 
   21200    300.90063   -1284.3313    323.17465    392.30712    102.40281    38315.161 
   21300    306.86118   -1254.4994    340.71818    466.49338   -40.879303    38315.161 
   21400    300.74488   -1206.9594    352.58556    498.38931    457.06194    38315.161 
   21500     292.7118   -1223.3182     342.8345     436.1464    409.82174    38315.161 
   21600    300.16481   -1205.7352    353.33308    497.75188    256.05823    38315.161 
   21700    294.65713   -1195.0341    342.08337    472.42954     395.8088    38315.161 
   21800    294.41098   -1246.6503    321.11777    398.74049    892.46384    38315.161 
   21900    289.78139   -1248.8348    319.04504     373.6592    478.79799    38315.161 
   22000    299.53975   -1222.3548    354.91697     479.9046    368.85934    38315.161 
   22100     302.6804   -1177.7057    338.84069    522.60423    29.181862    38315.161 
   22200    298.29517   -1216.7146    350.41329    475.44298   -169.46152    38315.161 
   22300    304.43682   -1231.0364     311.3866     449.7199   -33.895607    38315.161 
   22400     296.0423   -1219.3165    330.92966    443.22395    147.24442    38315.161 
   22500     303.0275   -1223.7238    327.13409    466.44082    51.755932    38315.161 
   22600    300.27822   -1250.1669    340.02325    440.52049   -106.25859    38315.161 
   22700    302.80043   -1290.9946    330.99796    402.01254    95.227733    38315.161 
   22800    304.13605   -1296.7536    324.49995    395.76315   -85.757907    38315.161 
   22900    295.28024   -1284.5308    326.77844    370.43062   -61.781409    38315.161 
   23000    291.11005   -1291.1444    323.64837    341.92934   -15.800742    38315.161 
   23100    295.31457   -1302.7558    320.88947    346.47113    67.329786    38315.161 
   23200     302.5142   -1285.1825    336.65795    412.19714   -172.99354    38315.161 
   23300    299.03997   -1274.1183    347.66842    418.64458  -0.73799386    38315.161 
   23400    305.12187   -1285.0515     332.9824    420.38199    313.12385    38315.161 
   23500    300.31753   -1245.0026    334.92247    440.76087    194.85593    38315.161 
   23600    296.67765   -1239.3192    327.07686    422.22634    418.20929    38315.161 
   23700    303.41149   -1257.8714    320.05088    426.93721    175.42954    38315.161 
   23800    300.41048   -1273.3297     349.2503    427.17967    15.069383    38315.161 
   23900    300.11452   -1266.1764    351.84064    435.59204    351.43776    38315.161 
   24000    297.45543   -1275.4739    331.68099    394.17421    28.691671    38315.161 
   24100    302.68858   -1269.7699    332.65656    424.39276   -274.43463    38315.161 
   24200    290.40715   -1270.8993    353.81616    389.18051   -33.635437    38315.161 
   24300    309.25897   -1273.1518    336.00417    453.91231   -44.642913    38315.161 
   24400    295.04985   -1269.4353    346.20917    403.92064   -445.23881    38315.161 
   24500    293.00904    -1253.062    332.26482    397.16988   -507.03825    38315.161 
   24600    298.91535   -1242.3439    335.77317    437.96321   -181.55604    38315.161 
   24700    290.18076   -1262.0172    336.32821    379.55635    -26.02941    38315.161 
   24800    289.88067   -1241.4573     341.8788    404.31706   -249.46632    38315.161 
   24900    297.48758   -1253.4354    349.48566    434.16202    144.46303    38315.161 
   25000    305.74103   -1258.7415    326.29233    442.78697    122.29336    38315.161 
   25100    302.47897   -1244.9446    339.90342    455.52208    583.72061    38315.161 
   25200    301.78946   -1232.0835    333.90881    459.28708    109.09532    38315.161 
   25300    303.79235   -1228.2572    340.07641    478.29007    195.46225    38315.161 
   25400     290.5957   -1287.0055    333.85644    353.96271    324.53265    38315.161 
   25500    309.48419   -1275.2132    344.59987    461.45969    440.04689    38315.161 
   25600    297.36301   -1255.1049    344.79108    427.23755    35.084932    38315.161 
   25700    314.58957   -1251.1505    345.48227    509.36898    46.272197    38315.161 
   25800    296.66635   -1259.4226    344.00922    419.00446   -157.00828    38315.161 
   25900    294.64157   -1224.1205    337.21721    438.40703    69.206504    38315.161 
   26000    299.79053   -1244.7386    330.95169    434.68361   -304.08289    38315.161 
   26100    289.19521   -1282.9343    357.91659     375.7946   -224.26629    38315.161 
   26200     292.8576   -1264.1331    345.89126    399.04401    1.6570019    38315.161 
   26300    299.97847   -1301.1395    328.14763    376.32404   -47.116407    38315.161 
   26400    306.53316   -1283.0601    350.82011    446.55916   -299.64206    38315.161 
   26500    301.98449   -1310.8554    314.61803    362.10171   -78.957484    38315.161 
   26600    303.92873   -1294.0785     337.3904    410.39621     204.1995    38315.161 
   26700    301.14609   -1310.7228    353.19233    397.03737    139.33163    38315.161 
   26800    298.31924   -1254.4191    361.00181    448.43534    177.33925    38315.161 
   26900     291.6329   -1285.3279    338.10035    364.54956     258.3279    38315.161 
   27000    305.69306   -1291.6704    346.13912    429.48901   -299.17152    38315.161 
   27100    304.24195   -1276.1812    356.38567    448.69769    -339.4405    38315.161 
   27200     300.8827   -1224.0024    349.92491    479.30564    133.51278    38315.161 
   27300    296.47817   -1254.1186    353.55609     433.0089    245.50997    38315.161 
   27400    301.60772   -1261.5708    357.08336    452.15684      15.9078    38315.161 
   27500    299.83243   -1167.9965    358.66448    539.32698    392.52355    38315.161 
   27600     295.8507   -1180.1641     358.9914    509.57627    432.86778    38315.161 
   27700    295.64988   -1216.0188    357.32555    471.15244    347.16967    38315.161 
   27800    293.69348   -1200.9494    360.40955    480.50586    196.64029    38315.161 
   27900    306.65613   -1217.5997    373.11925     534.8718    619.13932    38315.161 
   28000    299.65601   -1248.3553    372.27263    471.78273    448.45855    38315.161 
   28100     299.2436   -1246.5689    345.02508    444.46653    319.14971    38315.161 
   28200    302.93822   -1244.5207    363.31468    481.42292    549.73326    38315.161 
   28300    303.55187   -1254.7398    388.83798    499.48735    5.8227795    38315.161 
   28400    296.07472   -1287.7418    375.27116      419.286    293.55654    38315.161 
   28500    307.90048   -1307.4272    366.13789    443.66006    551.01272    38315.161 
   28600    293.42915   -1340.1414    352.51726    332.23255     351.6531    38315.161 
   28700    295.31979    -1298.544     356.1045    385.92143    279.24808    38315.161 
   28800    306.13177   -1315.2852    354.86946    416.57798   -144.52663    38315.161 
   28900    295.48924   -1296.8603     373.1566    405.41948    23.825355    38315.161 
   29000    300.24288   -1288.8658    370.91972    432.55912   -65.332928    38315.161 
   29100    310.87446   -1234.8239    352.12268    515.62526    296.03179    38315.161 
   29200    303.45116   -1240.3042    379.60532     504.2373    -303.5458    38315.161 
   29300     299.8125   -1220.1522    373.51513    501.93227   -182.63524    38315.161 
   29400     311.0449   -1257.8119    371.66495    512.94613   -64.713672    38315.161 
   29500    291.81938   -1266.2917    358.55731    404.88158   -403.50625    38315.161 
   29600     291.9262   -1233.1839     365.6834    445.59586   -810.61284    38315.161 
   29700    308.55718   -1267.2999    370.61248    491.21582    -563.8062    38315.161 
   29800    300.68865   -1262.9685    364.14943    453.69119   -511.02285    38315.161 
   29900     308.2366   -1280.3708    378.49991    484.59036    315.74253    38315.161 
   30000    296.96073    -1254.219    385.58717    467.11008   -93.052544    38315.161 
   30100    289.64448   -1229.9086    370.28689    443.21139    131.21415    38315.161 
   30200    314.11678   -1217.1048    368.40362    564.20942    609.06959    38315.161 
   30300     310.4251   -1234.3761     379.2991    541.22822    768.11905    38315.161 
   30400    293.71913   -1238.9491    371.95383    454.16588    503.59109    38315.161 
   30500    310.29532   -1235.5467    372.20036    532.37514    888.38741    38315.161 
   30600    290.24729   -1198.3863    374.07006    481.22842    363.92381    38315.161 
   30700    306.56735   -1232.8903    358.20462    504.26729    185.88858    38315.161 
   30800    291.62851    -1247.095    369.70381    434.36619    -57.36191    38315.161 
   30900    308.73838   -1278.4309     357.1008    467.38824     276.6382    38315.161 
   31000    292.00116   -1292.6451    373.05115    393.83968    250.24713    38315.161 
   31100    307.81191   -1270.5936    372.67038    486.62783     332.8468    38315.161 
   31200    299.20541   -1277.4008    375.98217       444.42    184.40855    38315.161 
   31300    307.29925   -1224.4232    371.53573    529.35755    550.12375    38315.161 
   31400    302.73235   -1268.1688    373.46212    466.99627     438.5862    38315.161 
   31500    300.12767    -1270.697     369.7058    448.99578    217.81952    38315.161 
   31600    297.51708   -1264.4226    377.26673    451.08853   -152.69764    38315.161 
   31700    289.15839   -1293.8917    395.29013    402.04515   -188.07916    38315.161 
   31800    297.47704   -1299.3484    373.19846    411.91439    23.873723    38315.161 
   31900    295.04701    -1296.001    395.59748    426.73041    262.64463    38315.161 
   32000    291.96022   -1251.1453    378.91352    441.01768    688.88749    38315.161 
   32100    304.45813   -1283.6384     369.1886    455.01577    560.48921    38315.161 
   32200    293.26988   -1231.2774    357.91222    445.77516    10.570621    38315.161 
   32300    292.01731   -1258.3183    367.20249    422.39039    271.59316    38315.161 
   32400    296.89019   -1243.6271     370.6698    462.46737    344.14689    38315.161 
   32500    295.93703   -1198.7043     384.0745     516.5075    91.158279    38315.161 
   32600    300.67297   -1223.0389    386.20354    515.60438    54.711697    38315.161 
   32700    306.17799   -1219.1943    384.73599    542.74328    414.35989    38315.161 
   32800    294.47408    -1218.979    379.36538    484.94327    632.08167    38315.161 
   32900    301.14058   -1224.7214    391.14444    520.96612    311.29738    38315.161 
   33000    309.50764   -1233.3803    360.86844    519.66657    357.86897    38315.161 
   33100    304.22458   -1245.7193    371.01777    493.71357   -191.00387    38315.161 
   33200    307.01117   -1228.7723    380.08499    532.26196    -268.0005    38315.161 
   33300    306.65371   -1291.6916    365.31077    452.96059   -24.801367    38315.161 
   33400    292.92419   -1290.6461    364.80097    391.74033   -310.10049    38315.161 
   33500    310.90376   -1263.5156    364.99793    499.94066   -218.78044    38315.161 
   33600    295.80211   -1243.4521    375.40246    462.48079    595.53271    38315.161 
   33700      303.852     -1244.64    376.41781      498.517    582.58783    38315.161 
   33800    306.51091   -1262.7929    371.42387    487.33005    507.60961    38315.161 
   33900    309.31455   -1259.3054    374.24082    506.24535    1018.3966    38315.161 
   34000    300.68331   -1249.6394     382.3698    485.21665      372.356    38315.161 
   34100    310.28637   -1245.2483    379.96125    530.39422    292.70478    38315.161 
   34200     298.2234   -1260.3132    378.54345    459.65177    334.94429    38315.161 
   34300    295.81167   -1273.8293    385.64507    442.38918    224.52339    38315.161 
   34400    291.38874   -1245.7057     392.6853    457.65851    105.98943    38315.161 
   34500    303.41578    -1251.897    379.23053    492.11061    249.58272    38315.161 
   34600    310.32756   -1265.9251    367.26104     497.2024     41.77057    38315.161 
   34700    294.12523   -1299.5119    380.32217    403.79795    254.34177    38315.161 
   34800    287.95996   -1300.6401    385.01785    379.63387    112.52959    38315.161 
   34900    306.45052   -1276.0539    380.29534    482.66884    340.36488    38315.161 
   35000    307.73531   -1265.3868    385.22417    504.04377    426.39674    38315.161 
   35100    300.91737    -1255.735    377.84571    475.64975    248.54648    38315.161 
   35200      293.646     -1247.62    373.23919    446.45135    374.90678    38315.161 
   35300    303.73139   -1257.2791    342.96279    451.88033    985.40016    38315.161 
   35400    309.27527    -1304.639    351.49184    437.98614    938.71913    38315.161 
   35500    305.75621   -1235.1528    381.68067    521.83223    1023.7748    38315.161 
   35600    300.91968   -1275.9023    393.66604    471.31319     1165.424    38315.161 
   35700    293.74434   -1288.4857    365.98193    398.77067    580.62926    38315.161 
   35800    311.32871   -1289.4407     370.4945    481.42355    850.54695    38315.161 
   35900    294.06743   -1292.6494    379.55262    409.63101    193.97465    38315.161 
   36000    295.04377   -1294.4013    371.70065    404.41873   -393.40924    38315.161 
   36100    313.87014   -1306.8578    378.80435    483.74777   -96.877267    38315.161 
   36200    294.34775   -1322.4953     364.3594    365.85274   -593.02629    38315.161 
   36300    306.96564   -1321.1666    367.58031    427.15815   -411.73159    38315.161 
   36400    299.70101   -1300.8873    362.62262    409.80314   -745.51549    38315.161 
   36500    295.37128   -1266.7124    372.29552     434.1756   -44.111617    38315.161 
   36600    301.60473   -1332.1855    363.55568    388.00106    361.79293    38315.161 
   36700    301.47835   -1302.9237    379.13827    432.27691    425.03841    38315.161 
   36800    299.14498   -1329.3724    376.19987    392.39425    62.058954    38315.161 
   36900    306.42322   -1307.0648    391.33253    462.57229    452.65263    38315.161 
   37000    298.16793    -1323.882    389.94409     407.2341    575.94597    38315.161 
   37100    311.24902   -1293.1855    354.39413    461.21988    459.55239    38315.161 
   37200    291.69374   -1325.7383    362.98753    349.29998    594.43244    38315.161 
   37300    296.80283   -1340.1609    386.02916    380.89991    210.13676    38315.161 
   37400    305.10384    -1282.686    349.72513    439.40908   -571.47265    38315.161 
   37500    297.28474   -1324.5668    370.46583    383.09835   -235.69525    38315.161 
   37600    310.61237   -1313.8598    364.56498    447.85282      407.267    38315.161 
   37700    299.99862   -1368.6892    362.91698    343.63425    424.88898    38315.161 
   37800    296.23408   -1355.2579    354.24922    331.46479    304.82298    38315.161 
   37900    293.04269   -1322.0116     374.8279    370.93478    632.88906    38315.161 
   38000     296.3101   -1321.4677    362.86426    374.21199    331.46729    38315.161 
   38100    297.30111   -1287.3245    372.03259    421.98111    267.36075    38315.161 
   38200    315.61154   -1285.7043    370.99029    504.92007    413.29923    38315.161 
   38300    301.05656   -1309.0561    372.33723    417.44623   -115.73636    38315.161 
   38400    302.07675   -1295.9008    367.73646    430.58963   -3.7508333    38315.161 
   38500    305.13101   -1295.1703    370.33941    447.66138   -96.396072    38315.161 
   38600    292.26668   -1284.9423    376.02042    405.70604   -136.57724    38315.161 
   38700      303.102   -1310.1613    380.68193     433.8863     141.0083    38315.161 
   38800    287.15843   -1315.0146    381.76858    358.40474   -40.619412    38315.161 
   38900    293.35415   -1302.6416    381.20251    398.08033   -179.01068    38315.161 
   39000    298.12159   -1306.9632    391.30708    425.30744    178.97615    38315.161 
   39100    300.35383   -1283.0492    395.13755    463.09261    213.99567    38315.161 
   39200    293.74855   -1304.4991    375.10056    391.89491     444.4683    38315.161 
   39300    292.94929     -1256.47    387.89763    449.12602    427.33684    38315.161 
   39400    302.98509   -1244.1791    378.33129    496.99197    130.93313    38315.161 
   39500    290.70472   -1288.4301    391.87248    411.04452   -73.133405    38315.161 
   39600    305.96029   -1279.7382    391.35969     487.8438    25.477816    38315.161 
   39700    284.41271   -1330.9507    384.32323    332.67295    118.75881    38315.161 
   39800    300.55172   -1319.1566    386.63286    419.37064    287.81888    38315.161 
   39900    300.86521     -1366.81    369.88772    356.38216    291.13689    38315.161 
   40000    297.76959   -1359.3559    382.62615    362.65049    451.24783    38315.161 
   40100    305.29523   -1349.5954    387.02031    410.65576    126.56541    38315.161 
   40200     303.3842    -1312.337     392.4528    444.75083    196.53696    38315.161 
   40300    299.74007   -1273.8311    419.77953    494.19198   -119.40575    38315.161 
   40400    301.95281   -1273.7401    400.91976    485.37625    -116.4284    38315.161 
   40500    306.22453   -1313.1318    390.70875    454.98786    258.87754    38315.161 
   40600    301.60447    -1301.752    398.21387     453.0916   -101.16424    38315.161 
   40700    294.01642   -1338.4107    382.15691     366.2445   -221.59921    38315.161 
   40800       299.08   -1340.2004    367.87774    372.95188   -194.92481    38315.161 
   40900    295.89565   -1359.7668    377.37316    348.55753   -492.93093    38315.161 
   41000    306.89413   -1352.2514    373.15261    401.32397      156.649    38315.161 
   41100    299.63439   -1375.1865    367.50211    340.08377    89.061208    38315.161 
   41200    305.82792   -1348.9552     377.0578    403.72954    319.91207    38315.161 
   41300    311.61749   -1310.2298    374.98488     466.4237    154.61611    38315.161 
   41400    294.77496    -1298.254    393.68844    421.34467   -293.41862    38315.161 
   41500    292.17047   -1282.2679    370.34384    402.27114    214.42202    38315.161 
   41600    295.84862   -1294.3809    381.16391    417.52267   -501.26249    38315.161 
   41700    301.83811   -1268.3317    415.93403    505.28294   -538.36995    38315.161 
   41800    298.46351   -1284.8785    413.44545     471.0685   -468.39174    38315.161 
   41900    298.93368   -1255.7712    404.95702    493.80214    -287.9136    38315.161 
   42000     291.9346   -1300.5527    407.44315    420.02463   -213.31471    38315.161 
   42100    295.30544   -1294.3394     368.8449    402.80186   -196.30387    38315.161 
   42200    301.12192   -1283.5993    401.13728     471.9971     556.5569    38315.161 
   42300    298.52006   -1260.5837    400.76986    482.94199    466.53431    38315.161 
   42400     305.1432   -1257.8412    402.46731     517.1732    726.09543    38315.161 
   42500    296.62385   -1263.6648    408.35099    478.91286    162.11048    38315.161 
   42600    308.34677   -1317.7054    382.83315    452.08454    1066.8867    38315.161 
   42700    296.97229   -1324.7463    394.84414    405.89175    159.94539    38315.161 
   42800    314.02628   -1322.3262    396.56295    486.74027    655.13839    38315.161 
   42900    293.41499   -1295.8221    381.73581    405.70673   -278.67003    38315.161 
   43000     297.2789   -1331.9163    383.68781    388.94463    411.13427    38315.161 
   43100    294.97865   -1365.6011    387.49604    348.72146   -321.95563    38315.161 
   43200    307.49249   -1326.4582    389.45924    446.11532   -374.89847    38315.161 
   43300    296.44885   -1322.2053    388.90318     400.1374   -314.17651    38315.161 
   43400     291.3685   -1328.1936     394.7313    377.12551   -451.52535    38315.161 
   43500    298.99455   -1335.5722    379.47887     388.7968   -262.90291    38315.161 
   43600    295.03622   -1346.1518    375.21921     356.1528   -386.81023    38315.161 
   43700    296.99751   -1352.2814    390.09863    373.72465     -545.386    38315.161 
   43800    298.23443   -1331.8815    398.98984     408.5795   -124.91407    38315.161 
   43900    299.23211   -1373.1789    389.14275    361.92253   -321.75161    38315.161 
   44000    299.30893   -1365.3356    388.09806    369.06675   -267.92933    38315.161 
   44100    316.47974    -1307.636    386.00942    501.91268   -424.77831    38315.161 
   44200    296.94038   -1349.2207    383.44287    369.87264   -169.36284    38315.161 
   44300    301.54831   -1341.7921    400.09201    414.67697    -174.0329    38315.161 
   44400    294.40072   -1332.6795    378.46951     370.0169    293.89078    38315.161 
   44500    302.21134   -1323.0396    381.99484    418.31461    226.02637    38315.161 
   44600    296.23802   -1315.2955    391.96286    409.15856     368.5156    38315.161 
   44700    290.84497   -1335.1735     404.1708    377.23029     -138.676    38315.161 
   44800    298.18952   -1320.9795    402.31751     422.6071   -144.86298    38315.161 
   44900    301.64612   -1366.9816    391.10912     380.9445    302.49763    38315.161 
   45000    303.28674   -1321.2818    411.62546    454.54026    65.767814    38315.161 
   45100     305.7901   -1333.1372     411.2268    453.54646   -233.36658    38315.161 
   45200    300.38185   -1311.3306    402.85398    442.65365   -293.74592    38315.161 
   45300    305.67982   -1351.3121    415.06157    438.71025   -53.074513    38315.161 
   45400    294.91148   -1332.1988    411.85357    406.17907   -497.59516    38315.161 
   45500    288.97635   -1315.7489    412.48855    396.56754    311.94746    38315.161 
   45600    302.74725   -1287.2259    422.76734    497.31145     198.5217    38315.161 
   45700    300.37341   -1320.2681    390.14195    420.96621   -125.44544    38315.161 
   45800    298.54884   -1328.1483    414.39852    429.13551    34.333331    38315.161 
   45900    309.00045   -1312.9934    400.13775    477.04148    251.90911    38315.161 
   46000    299.55652   -1324.0663    384.42091    407.77254   -247.58162    38315.161 
   46100    297.95563   -1344.9262     387.3208    382.61164    53.675227    38315.161 
   46200     304.3642   -1300.0062    394.01674     463.0536      217.513    38315.161 
   46300    303.99399   -1329.5172    405.24766    443.10834    154.65731    38315.161 
   46400    283.12773   -1332.7281    385.16542    325.95788    1.3393985    38315.161 
   46500    304.50306   -1334.6869    410.79394    445.77472   -266.52454    38315.161 
   46600    305.01953   -1361.0422    412.81622     423.7648   -100.51336    38315.161 
   46700    302.82179   -1359.7625    408.52471     410.8675   -100.95578    38315.161 
   46800    305.76193   -1376.1621    419.40992    418.57795    152.42159    38315.161 
   46900    299.94613   -1400.1617      389.957    338.96569   -294.27895    38315.161 
   47000    300.53938    -1358.312    398.37625    391.90309   -129.72223    38315.161 
   47100    301.98702   -1369.7143    395.44743    384.08352   -252.38645    38315.161 
   47200    288.60516   -1355.3658    396.20731    338.99979    45.439029    38315.161 
   47300    294.21533   -1391.8981    409.68052     341.1754   -82.751265    38315.161 
   47400    298.51465   -1326.9637    426.82284    442.59072   -98.292918    38315.161 
   47500    297.77874    -1314.507    430.37409     455.2885    916.53237    38315.161 
   47600    292.83137   -1367.5349    428.82457    378.45756   -34.762298    38315.161 
   47700    309.44876   -1329.8897    420.15473    482.17873    517.71909    38315.161 
   47800    302.45853   -1350.7464    392.92721    402.65208    730.58538    38315.161 
   47900    306.96927   -1381.5602    403.99834    403.19888    774.63837    38315.161 
   48000    306.60784   -1378.7067    423.39671    423.82506    851.41831    38315.161 
   48100    300.35605   -1380.5411    430.06365    400.53681    729.95487    38315.161 
   48200    313.84657    -1346.671    406.57651    471.60064    797.44482    38315.161 
   48300    286.86602   -1267.7917    432.86653    455.41035   -217.71629    38315.161 
   48400     302.4328   -1318.6418    423.63446    465.34821   -125.92356    38315.161 
   48500    306.04621   -1344.2871     416.8472    449.16894     -487.448    38315.161 
   48600      306.166   -1362.8589    414.45089    428.73965   0.33064429    38315.161 
   48700    307.75764   -1333.6187    403.85671    454.54495   -12.963915    38315.161 
   48800    300.51866   -1345.7135    401.99509    408.02722   -143.85048    38315.161 
   48900    290.21802   -1362.1588    414.22403    357.47817   -201.46876    38315.161 
   49000    297.07832   -1352.8634    403.25131    386.65875    296.33419    38315.161 
   49100    309.74169   -1349.5945    406.13794    449.77466    279.14164    38315.161 
   49200      307.874   -1356.2775    420.50164    449.05445    597.32009    38315.161 
   49300    299.72105   -1349.5084    401.04584    399.69544    314.93656    38315.161 
   49400    301.47309    -1340.439    424.91233    440.51208    118.92208    38315.161 
   49500    308.68738   -1333.4045    429.84663    484.93101    315.05213    38315.161 
   49600    302.80147   -1363.3209    400.16314    398.85607     770.8594    38315.161 
   49700    309.11276   -1348.4162    425.68466    467.67077    678.02023    38315.161 
   49800    300.99418   -1344.9361    422.67603    431.62448   -64.527716    38315.161 
   49900    293.47009   -1382.9588    403.09404    340.17608    121.72028    38315.161 
   50000    297.23234   -1381.1296    418.66817    374.50218   -208.53047    38315.161 
   50100     304.2531   -1403.8119    411.28477    376.01622   -250.61722    38315.161 
   50200    298.04318   -1350.3232    412.85814    403.14574   -38.756916    38315.161 
   50300    299.88269   -1379.2342    399.31941    368.97029     -522.274    38315.161 
   50400    294.89727   -1368.4589    407.84307    365.84456   -175.23322    38315.161 
   50500     308.5551   -1372.0867    390.40368    406.21083   -331.76952    38315.161 
   50600    302.21214   -1336.7663    394.45305    417.04977    146.82968    38315.161 
   50700    299.49979   -1393.0565    396.41456    350.52084    100.73314    38315.161 
   50800    297.79146   -1375.2302     411.6644    375.91277    412.00484    38315.161 
   50900    292.91184   -1386.4496    404.97437    336.05461    327.37649    38315.161 
   51000    299.97078   -1379.7097    410.86135    380.43293     115.6307    38315.161 
   51100    300.67281    -1380.031    414.12492    386.53291    -59.86885    38315.161 
   51200    298.62239   -1333.4709    420.11917    429.86443   -478.17235    38315.161 
   51300    298.33586    -1305.064    413.94518    450.80852   -658.19235    38315.161 
   51400    300.29517   -1332.8212    395.21103    413.13027   -288.82589    38315.161 
   51500    303.64329   -1306.3623    420.09533    479.53346   -294.19819    38315.161 
   51600    291.94855    -1305.878    419.36241    426.68139    300.16714    38315.161 
   51700    304.78104   -1318.2041    408.83009    461.54407    220.29581    38315.161 
   51800    299.75809    -1334.294    435.71826    449.74891    349.14638    38315.161 
   51900    296.89278   -1313.9865    411.38693    432.83666    178.02087    38315.161 
   52000    308.76574    -1337.616    422.92725    474.15265   -134.94936    38315.161 
   52100    306.72232    -1314.074    406.80156    472.37757    55.438798    38315.161 
   52200    301.18862   -1339.1851    418.00586    433.57989    20.928508    38315.161 
   52300     289.9137   -1374.7922    425.58109    354.83303   -84.406945    38315.161 
   52400    296.33736   -1346.0531    406.43365     393.3186     -250.994    38315.161 
   52500    306.06655   -1322.5841    391.11171     445.2279   -316.64664    38315.161 
   52600    288.86867    -1328.871    431.61442    402.08696   -696.08775    38315.161 
   52700    301.09789     -1316.93    423.16294    460.58396    -40.15704    38315.161 
   52800    304.50153   -1368.2828    418.81518    420.19315   -394.68217    38315.161 
   52900    295.36082   -1331.2359    431.10397    428.41357   -642.02335    38315.161 
   53000    300.39186   -1373.3782    424.95301    402.75015    126.03932    38315.161 
   53100    284.77745   -1365.1977    403.11001    318.85332   -355.55888    38315.161 
   53200    300.94175   -1331.0209    436.80435    459.43218   -145.01863    38315.161 
   53300    290.60189   -1355.2229    417.45775     369.3745    -180.1084    38315.161 
   53400    292.44541   -1349.3117    406.36853    372.48867    160.72165    38315.161 
   53500    298.90556   -1338.0263    405.60096    412.06454   -363.89998    38315.161 
   53600    303.29715    -1350.039    393.47962    407.68404    27.962116    38315.161 
   53700    309.19027   -1389.2335    407.33683    408.85424    267.50033    38315.161 
   53800    292.12961   -1350.1094    421.10492    385.00685    497.26298    38315.161 
   53900    302.78497   -1321.5397    425.99725    466.39712   -6.1678031    38315.161 
   54000    305.14169   -1325.5424    419.26102    466.25891    55.872322    38315.161 
   54100    308.91828   -1335.2239    445.49299    499.79658   -496.74629    38315.161 
   54200    299.06692    -1311.999    440.45844    473.67514    335.29308    38315.161 
   54300     303.9565   -1344.9613    431.06064    453.30854   -68.285575    38315.161 
   54400    300.57292   -1406.4192    405.26926    350.83975   -111.39065    38315.161 
   54500    301.35606   -1352.7839    412.46295    415.19139    599.43503    38315.161 
   54600    314.66131   -1309.1967    431.72778    537.89103    582.41225    38315.161 
   54700    302.51589   -1342.0822    437.98582    456.63288     203.4949    38315.161 
   54800    296.52954   -1367.9358     419.4601    385.32675    405.87773    38315.161 
   54900    304.39689    -1356.296    391.18137    404.07549    253.42531    38315.161 
   55000    313.59731   -1345.6531    436.47686    501.39772    687.15392    38315.161 
   55100    297.87962   -1377.2501    392.53816    355.16327    779.85695    38315.161 
   55200    308.30672   -1380.5347    414.02799    420.27004    781.90162    38315.161 
   55300    295.09082   -1384.1516    416.83626    360.01564    627.27922    38315.161 
   55400    304.90019   -1369.1241    402.12379    404.45363    667.39919    38315.161 
   55500    304.55787    -1384.964    436.10646    421.05662    131.88275    38315.161 
   55600    290.93902   -1378.3467      425.635    355.94438   -86.816205    38315.161 
   55700    297.54689   -1390.7538    439.16059    386.78529    563.67862    38315.161 
   55800    303.60615   -1371.7414     449.9413    443.83325     570.5772    38315.161 
   55900    296.53444   -1362.0901    393.04227    364.77667    37.340475    38315.161 
   56000    288.51247   -1369.8286    436.30567    364.21837    124.24994    38315.161 
   56100    285.94923   -1357.5405    422.92196    351.59325   -245.40887    38315.161 
   56200    293.51953   -1385.6883    400.89601    335.47096   -239.72434    38315.161 
   56300    298.36115   -1388.0379    405.21154    359.21469    56.384848    38315.161 
   56400     296.2306   -1397.3241    409.87953    345.01316   -156.36142    38315.161 
   56500     297.8659   -1368.1032    435.20803    406.91831    680.42248    38315.161 
   56600    303.85506   -1317.1144    431.20134    480.83987    425.25599    38315.161 
   56700    293.52739   -1315.4155    423.65996    428.54311    675.22291    38315.161 
   56800    300.51255   -1378.1697    387.73984    361.28839    796.67423    38315.161 
   56900    291.33966   -1342.3648    411.89634    379.98968   -224.17255    38315.161 
   57000    301.48041    -1374.054    442.80336    424.82102    363.24869    38315.161 
   57100    307.55905   -1382.6774    412.42213     413.1584    395.51706    38315.161 
   57200    300.26899   -1355.0711    442.26767    437.81925   -260.25699    38315.161 
   57300    294.73086   -1340.7377    431.14948    416.12363    117.43393    38315.161 
   57400    298.77959   -1355.1943    440.00994    428.73894   -212.48557    38315.161 
   57500    305.59523   -1343.8953    453.71536    484.40028    112.54375    38315.161 
   57600    307.27803   -1379.5885    441.85711    444.41819    678.38997    38315.161 
   57700    305.93152   -1351.6564    438.94965    463.38622    270.70681    38315.161 
   57800    294.01088   -1318.7601    447.73987    451.45314    720.93705    38315.161 
   57900    302.01999    -1366.409    413.84888    405.93865    512.36302    38315.161 
   58000    298.29909    -1367.882    424.20972    398.08967    628.46874    38315.161 
   58100    294.81091   -1405.5734    419.30059    339.79916    286.36484    38315.161 
   58200     297.8945   -1378.5335    421.75908    383.16764    17.753187    38315.161 
   58300     300.7484   -1395.1163    406.82852    364.49123   -167.84354    38315.161 
   58400    305.46444   -1400.6742    413.51685    386.83458    117.63066    38315.161 
   58500    305.04292   -1385.2422    421.77138     408.6251    289.04167    38315.161 
   58600    302.51374   -1384.6228    431.42601    407.52285    643.83705    38315.161 
   58700    306.01126   -1320.6639    425.44407    481.23173    172.69367    38315.161 
   58800    301.71857   -1389.5414    423.89281     391.4943   -44.566622    38315.161 
   58900    299.56752    -1347.081    434.01049    434.39689    183.35549    38315.161 
   59000    293.09728   -1377.1704    441.40739      382.601   -365.02584    38315.161 
   59100    306.60396   -1352.9362    424.69934    450.88069    118.11389    38315.161 
   59200    316.56452   -1373.1077    441.73221    492.54511    517.13646    38315.161 
   59300    295.95793   -1342.3012    416.21657    405.14665    215.65053    38315.161 
   59400    308.14033   -1389.4174    416.46664    413.07751     1.999359    38315.161 
   59500    301.23019   -1387.0877    423.13172    390.99015   -62.662677    38315.161 
   59600    307.45911   -1411.9262    418.52839    389.56632     220.7042    38315.161 
   59700     285.9175   -1379.8594    429.01076     335.2204   -247.87765    38315.161 
   59800    295.38981   -1423.5717    409.65014    314.75435   -325.95043    38315.161 
   59900    296.48905   -1398.2391    406.50156    341.88281   -635.21235    38315.161 
   60000    301.04217   -1442.5655    405.01306    316.54801   -434.70112    38315.161 
   60100    295.78634   -1422.6127    414.80468    322.65145   -6.1714885    38315.161 
   60200    297.48507   -1395.7043    411.88093    354.27707   -188.47967    38315.161 
   60300    292.86489   -1406.8635     412.2025    322.65765    102.66649    38315.161 
   60400    292.85366   -1395.8189    402.50753    323.95681    223.01384    38315.161 
   60500    301.55094   -1395.0044    403.17676    364.56123    581.38913    38315.161 
   60600    314.31814   -1389.0106    426.63993    451.44563    -78.60222    38315.161 
   60700    299.21058   -1383.5928    428.54117    390.81026   -167.08196    38315.161 
   60800    302.34174    -1362.647    425.91943    423.21834   -448.78267    38315.161 
   60900    311.53618   -1354.7966    417.84131    464.34766   -222.87709    38315.161 
   61000     311.0847   -1352.1475    428.06821    475.19282   -220.85857    38315.161 
   61100    299.52201   -1350.1599    417.34257    414.44539   -773.80824    38315.161 
   61200    294.80676   -1438.9851    390.74988    277.81808   -819.41507    38315.161 
   61300    301.02404   -1424.5138    403.34441    332.84944   -819.48674    38315.161 
   61400    304.58277   -1350.7939    420.09877    439.33113    -472.0906    38315.161 
   61500    297.59375   -1329.7894    436.14402    444.94386   -112.04929    38315.161 
   61600    303.51889   -1326.5614    430.04628    468.72573   -25.401343    38315.161 
   61700    299.99448   -1320.3723    432.40173     461.4173    26.525425    38315.161 
   61800    305.56279   -1338.0165    429.43479    465.85264    81.432101    38315.161 
   61900    309.25662   -1341.1598     416.9637    466.85326   -127.30624    38315.161 
   62000    289.95199    -1303.861    426.61097    426.96632      -517.73    38315.161 
   62100    307.68609   -1331.6734    430.00186    482.31357   -373.90621    38315.161 
   62200    301.07185   -1279.3358    419.60777    494.50595   -493.89131    38315.161 
   62300    292.81684   -1305.3272    438.87008    450.64539    -119.4991    38315.161 
   62400    311.47379   -1301.4289    428.71019    528.30358    437.60728    38315.161 
   62500    282.76922   -1308.2373    432.86882    396.53942    516.50697    38315.161 
   62600    297.73798   -1312.7855    416.40363    442.85617    467.92485    38315.161 
   62700    302.30451    -1358.334    421.33877    422.78324    475.37931    38315.161 
   62800    289.60498   -1333.6958    437.38212    406.34183   -11.858089    38315.161 
   62900    300.46951   -1336.7511    424.57957    439.35311   -194.57686    38315.161 
   63000    290.42452   -1358.2494    428.15928    376.25168   -763.94377    38315.161 
   63100    313.64602   -1344.8498    435.33387    501.27711   -208.11006    38315.161 
   63200    305.80032   -1298.4517    444.60405    521.65511   -313.39401    38315.161 
   63300    296.07948   -1343.9734    425.26917    413.07387   -444.67558    38315.161 
   63400    297.53076   -1390.5463    391.75505     339.5147   -412.83027    38315.161 
   63500    297.79302   -1386.5118    414.99339    367.96716   -417.98192    38315.161 
   63600    300.62636   -1366.6715    412.36006    397.91862   -434.66327    38315.161 
   63700    297.04218   -1366.1041    430.78248    400.78673    69.574737    38315.161 
   63800    304.92526   -1379.7044    420.80814     412.6705   -71.087034    38315.161 
   63900    300.72186   -1355.3333    444.33158      441.658     568.3071    38315.161 
   64000    299.15908   -1389.7502    415.38842    371.26845    348.59966    38315.161 
   64100    310.63998   -1376.0268      420.199    441.44402    691.61235    38315.161 
   64200    298.96691   -1354.4109    437.42598    427.78087    281.15855    38315.161 
   64300    303.22692   -1363.6378    457.53795    457.82774    691.38751    38315.161 
   64400    293.19386   -1392.7983    417.60965    343.60978    224.35057    38315.161 
   64500    310.40331   -1353.7162     452.4823    494.97333    1066.3761    38315.161 
   64600    301.58305   -1385.7179    431.40201    402.21748    881.31872    38315.161 
   64700    305.12872   -1370.2778    422.65085      424.855    549.53912    38315.161 
   64800    303.40475   -1387.9837    419.48407    396.22779    464.21708    38315.161 
   64900    302.31185   -1408.4607    409.77211    361.12292    358.48262    38315.161 
   65000    302.48485   -1388.9166    432.96422    404.63728    392.90137    38315.161 
   65100    296.10152   -1392.4146    406.73822    346.20082    441.93698    38315.161 
   65200    306.26956   -1371.1853    427.88878    434.31692    163.17721    38315.161 
   65300    307.19665   -1379.1847    424.57972    427.17855    480.71626    38315.161 
   65400    303.18723   -1397.2454    413.53712    380.04069    12.270579    38315.161 
   65500    302.37217   -1418.3866    437.17271    378.86896    141.24275    38315.161 
   65600    306.11439   -1365.5779    427.92879     439.2664    380.71276    38315.161 
   65700    300.05225    -1378.893     429.5377    400.29241   -183.23831    38315.161 
   65800    290.87016   -1412.8883    418.74937    314.20733   -346.80371    38315.161 
   65900    291.40115   -1418.5007    438.71639    330.95035   -354.40937    38315.161 
   66000    293.05186   -1410.3056    412.16451    320.01862   -673.41783    38315.161 
   66100    292.76721   -1392.1427    426.70368    351.44035   -104.48059    38315.161 
   66200    302.55325   -1405.8222    411.68175    366.75695    -479.3551    38315.161 
   66300    310.65373   -1396.6714    426.75049    427.41279   -441.08961    38315.161 
   66400    292.96314   -1398.8602     428.1406    347.04107    43.410829    38315.161 
   66500    302.94999   -1388.4583    450.75421    424.97782    466.33499    38315.161 
   66600    294.39346   -1363.0678    433.39443    394.52087    363.23932    38315.161 
   66700    298.18464   -1384.1495    434.32937    391.42704    116.23454    38315.161 
   66800    302.12372   -1388.4303    418.34447     388.8795    74.247741    38315.161 
   66900    304.21974   -1432.7804    421.28533    356.89821    49.625223    38315.161 
   67000    292.73992   -1439.1465     425.5458    303.15584   -46.601713    38315.161 
   67100    305.00488   -1430.4774    421.50606    362.95352   -504.79675    38315.161 
   67200    298.50893   -1432.6171    407.17367     317.2624   -611.32634    38315.161 
   67300    305.64802   -1448.4108    418.19424    344.60119    522.82469    38315.161 
   67400    294.88468   -1446.7572    417.15082    296.79747    88.770796    38315.161 
   67500     297.4064   -1405.6948    445.14577    377.19755    878.87197    38315.161 
   67600    300.84842   -1405.6635    415.08974    362.65523    235.70759    38315.161 
   67700    311.85252   -1381.4703    455.20574    476.46125    345.37988    38315.161 
   67800    304.92225   -1419.1746    456.08204    408.46064   -51.953693    38315.161 
   67900    298.97631   -1505.2011    418.65426    258.26126    580.72381    38315.161 
   68000    303.83198   -1483.2236    420.25162    303.67716    233.65486    38315.161 
   68100    289.73084   -1454.1284    446.74193    295.83516   -99.637744    38315.161 
   68200    286.06898   -1446.2404    451.09717    291.60716   -499.19249    38315.161 
   68300    295.84597   -1402.8386     450.5526    378.44169   -401.64761    38315.161 
   68400    312.04081   -1390.5154    431.13656    444.19398   -85.789381    38315.161 
   68500    301.88737   -1393.1445    440.31243     405.0701    164.47814    38315.161 
   68600    308.36132   -1444.2121     424.7212    367.53136    146.82585    38315.161 
   68700    305.24426   -1445.7194    437.35267    364.63484    884.14191    38315.161 
   68800    296.05506   -1444.7093    432.25163    319.21056    127.32675    38315.161 
   68900    294.69234   -1427.1327    442.78157    341.18749    351.22229    38315.161 
   69000    289.76125   -1420.8833    452.76268    335.23775   -106.89796    38315.161 
   69100    293.50361   -1437.2672    423.78318    306.70766   -38.011775    38315.161 
   69200    305.52513   -1410.5533    431.70481    395.41646    22.184241    38315.161 
   69300    297.42694    -1378.693    457.51592    416.66188    371.14181    38315.161 
   69400    308.31092   -1423.7046    433.78325    396.87426    129.69589    38315.161 
   69500    303.04863   -1395.3817    459.15073    426.89463   -554.41061    38315.161 
   69600     311.7604   -1386.8896    439.55858    454.98046   -225.12302    38315.161 
   69700    293.93417   -1444.8503     442.2634    319.54145   -573.12698    38315.161 
   69800    302.82401   -1397.4353    454.50215    419.18209   -552.07225    38315.161 
   69900    299.75307   -1442.3291    424.12202    330.09491   -923.38555    38315.161 
   70000    297.43865   -1455.3926    424.67743    307.17649    -1009.105    38315.161 
   70100     307.3285   -1424.8419    421.07663    378.61133   -322.89758    38315.161 
   70200    302.80721   -1404.5197    443.74173    401.26165   -90.269189    38315.161 
   70300     293.1769   -1423.5882    465.86004    360.99391   -205.45538    38315.161 
   70400    302.01715   -1404.2886    448.21042    402.40771   -198.60377    38315.161 
   70500    300.67519   -1376.9695    423.44796     398.9282    191.39855    38315.161 
   70600    309.29256    -1361.512    442.06574    471.76484     94.39824    38315.161 
   70700    300.92806   -1409.6581    435.37685    379.30586    173.21083    38315.161 
   70800    302.68627   -1445.5811    417.70974    333.62431   -303.31977    38315.161 
   70900    310.40742   -1470.3396    409.47767    335.36376    136.99637    38315.161 
   71000    300.42174   -1466.6647    425.56514    310.21019   -543.94868    38315.161 
   71100    292.16057   -1439.5773    432.55004    307.12337   -595.79732    38315.161 
   71200    298.30349    -1452.094    433.27256    322.96033    -40.05213    38315.161 
   71300    295.58735   -1438.5298    423.62163    314.65623    111.30609    38315.161 
   71400    294.68524   -1432.3174    421.06504    314.25437   -67.159864    38315.161 
   71500    298.02392   -1431.8266    422.70687    331.40453    492.16401    38315.161 
   71600    287.51345   -1443.9068    429.72817    279.06906     12.60748    38315.161 
   71700    298.00288   -1444.2751    453.01371    349.16819     -386.918    38315.161 
   71800    300.27942    -1463.467     404.0918    291.29438    14.682087    38315.161 
   71900    286.74666   -1476.5881    405.98917    219.19971    46.961087    38315.161 
   72000    297.86302   -1458.7497    387.26901    268.31974   -219.79701    38315.161 
   72100    300.36501   -1436.6213     419.0525    333.48571   -139.39921    38315.161 
   72200     305.2165   -1436.4457    433.26583    369.69687    -232.9255    38315.161 
   72300    283.47995   -1487.1686    416.95176    204.88795   -422.76113    38315.161 
   72400    303.86785   -1422.5207    428.39244    372.68217   -257.33793    38315.161 
   72500    291.00433   -1429.0756    417.57695     297.4512   -646.60005    38315.161 
   72600    301.96149   -1491.3303    432.59034    299.49566   -292.30469    38315.161 
   72700    298.43965   -1471.2476    457.54774    328.69432   -6.7237821    38315.161 
   72800    303.41094   -1463.2354    437.68391    339.20374   -111.47228    38315.161 
   72900    297.74716    -1464.178    429.59085    304.69221   -100.90981    38315.161 
   73000    300.21817   -1469.3373    449.00651     330.0633    670.93221    38315.161 
   73100    305.75542   -1507.1459    452.18262    320.33751    938.90309    38315.161 
   73200    286.66554   -1444.0724    442.20887    287.57017    866.96648    38315.161 
   73300     299.7079   -1474.7747    437.06245    310.38661    1038.5331    38315.161 
   73400    303.07744   -1450.0406    437.50832    350.72293    1064.3516    38315.161 
   73500    298.37112   -1436.7482    425.35264    330.69042    577.32683    38315.161 
   73600    315.78164   -1489.2913    447.04541    378.15328    605.32439    38315.161 
   73700    305.65409   -1440.0319    447.33402    382.14719    128.73447    38315.161 
   73800    289.12256   -1464.0765     437.1847    273.59378    121.69875    38315.161 
   73900    306.89406   -1434.2186    431.75919    377.96309    480.15684    38315.161 
   74000    295.14418   -1454.3452    422.41402    295.63986    152.67833    38315.161 
   74100    296.55298   -1444.2927    452.74316     342.3583   -473.21071    38315.161 
   74200    294.92518    -1433.678    441.02223    333.93016    -633.6004    38315.161 
   74300    302.50879   -1479.9216    445.89398    326.66976    -192.0772    38315.161 
   74400    299.17127   -1450.9695    422.41582    317.13142    205.48089    38315.161 
   74500    309.44294   -1465.4963    428.47776    354.86889    87.963508    38315.161 
   74600    296.57357   -1466.3495    456.37636    324.02733   -19.489019    38315.161 
   74700    296.13699     -1464.79     442.0244    309.27116   -103.64641    38315.161 
   74800    309.15668   -1453.6645    455.35146    392.28678    37.784819    38315.161 
   74900    306.31566    -1425.283    455.39239    407.93016    97.278116    38315.161 
   75000    302.16446   -1423.9566    462.38633    397.57826    273.29751    38315.161 
   75100    300.18293     -1432.18    456.71626    374.77182   -63.784191    38315.161 
   75200    290.81459   -1499.2104    443.29466    252.18062   -400.51825    38315.161 
   75300    299.40604   -1477.9481    445.39198    314.18487   -189.67287    38315.161 
   75400    305.06012   -1465.9492     440.0517    346.27587   -719.07505    38315.161 
   75500    286.48701   -1451.3043    428.84403     266.1704   -383.21468    38315.161 
   75600    305.98509    -1459.812    455.46134    371.98327   -924.57455    38315.161 
   75700    293.69277   -1426.2731    445.57441    340.34387   -706.24441    38315.161 
   75800    297.10931   -1424.4264    455.40449    367.38839   -446.53403    38315.161 
   75900     291.6957   -1418.6052     451.0172    344.47159   -378.40969    38315.161 
   76000    296.89882   -1456.1119    433.45673    312.80835   -441.89549    38315.161 
   76100    291.01721   -1439.1991    446.23852    316.04712   -542.15773    38315.161 
   76200    308.75703   -1434.3214    443.30114     397.7819   -225.38476    38315.161 
   76300    296.59792    -1451.084    412.78505    295.81104   -828.60265    38315.161 
   76400      305.349   -1487.0332    441.15868     327.5982   -500.43717    38315.161 
   76500    315.68809   -1471.3507    466.41255    415.04025    129.81754    38315.161 
   76600    300.55501   -1462.5136    455.88901    345.28458   -350.92557    38315.161 
   76700    300.53576   -1492.1528    432.11652    291.78631     144.4254    38315.161 
   76800    299.70444   -1501.1584    429.48438    276.40929   -110.11063    38315.161 
   76900    300.44746   -1453.9852    454.19748    351.63767   -406.55113    38315.161 
   77000     297.5181   -1467.5504    445.62422    316.32281   -616.39859    38315.161 
   77100      302.955   -1485.0253    457.31982    334.99901     -365.032    38315.161 
   77200    302.96052   -1454.1288    464.99884    373.59929   -676.44309    38315.161 
   77300    296.17522   -1443.6057    456.81785    345.42081   -640.13914    38315.161 
   77400     292.3566   -1435.7662    451.61943    330.88559   -294.84935    38315.161 
   77500    302.85363   -1404.0979    479.24005     437.3906    65.042523    38315.161 
   77600    289.82893   -1419.9672    448.77835    332.47391    34.580066    38315.161 
   77700    295.75145   -1408.5424    468.66603    390.42617    434.42113    38315.161 
   77800    295.30304   -1391.9379    474.06666    410.41428    148.32189    38315.161 
   77900    296.49829   -1383.4661    449.18517    399.38097   -353.70136    38315.161 
   78000    295.58235   -1396.3431    448.37213      381.571   -618.70053    38315.161 
   78100    295.94216   -1423.3073    441.09924    348.95234   -326.82854    38315.161 
   78200    299.08441   -1428.5762    468.40171    385.11983     33.19185    38315.161 
   78300    295.99026   -1457.5416    445.66362    319.49877   -448.10212    38315.161 
   78400    301.93906   -1475.0495    431.94181    315.02703   -767.42226    38315.161 
   78500    297.92413   -1435.5541    449.67363    354.19494    -687.1726    38315.161 
   78600    306.62492   -1411.5855    472.69548    440.32188    141.48423    38315.161 
   78700    309.23369   -1421.1983    460.15876    429.90668   -304.20911    38315.161 
   78800    300.85698   -1417.6471    454.21837    389.83867   -240.55791    38315.161 
   78900    301.73516   -1400.1067    465.10089    422.21175    41.472356    38315.161 
   79000    303.79008   -1481.3416     440.7476    325.86662   -129.11233    38315.161 
   79100    287.55892   -1444.4645    430.38442    279.37213   -150.91592    38315.161 
   79200    305.30232    -1407.489    436.93646    402.71019    250.55446    38315.161 
   79300    299.13548   -1425.3747    459.22503     379.3744   -187.22183    38315.161 
   79400    308.26359   -1409.0478    483.39973    460.93457    150.46249    38315.161 
   79500    297.62218   -1393.8297     445.1139    390.00142    278.05842    38315.161 
   79600    303.04376   -1423.2552     443.0798    382.92827    204.91402    38315.161 
   79700       306.49   -1408.0338    455.03282    425.60402    344.95372    38315.161 
   79800    294.87332   -1391.5044    457.86226    392.71053    736.86683    38315.161 
   79900     291.7562   -1435.4408    464.43162    341.32254    741.51028    38315.161 
   80000     303.3749   -1401.7897    461.69067    424.49409    677.32586    38315.161 
   80100    291.34527   -1409.7823    450.83796    351.53897    997.40901    38315.161 
   80200    302.08455   -1418.6679    455.65667     395.7779    298.94624    38315.161 
   80300     294.7144   -1451.8058    426.40791       300.24   -237.92628    38315.161 
   80400    299.30991   -1426.2264    431.20275    351.28498   -253.95931    38315.161 
   80500    300.50401   -1376.8031    479.70999    454.58665   -323.00367    38315.161 
   80600    297.31993   -1393.7429    450.78499    394.39969   -514.44601    38315.161 
   80700    301.52024   -1409.9203    446.81442    393.14489    -164.9377    38315.161 
   80800    300.89475   -1434.2062    431.63505     350.8662   -461.75655    38315.161 
   80900    297.90673   -1462.6351    441.67091    319.03293   -108.79762    38315.161 
   81000    292.59607   -1442.4193     469.9403    343.63053   -81.322281    38315.161 
   81100    309.65921   -1441.5485    434.51686    385.82865    535.42351    38315.161 
   81200    301.61947   -1440.8652    467.05351    382.88541   -197.22655    38315.161 
   81300    300.56175    -1412.226    450.84895    390.56242    417.70483    38315.161 
   81400    295.47831   -1451.9765    445.30885     322.4063    388.77468    38315.161 
   81500    307.21747   -1387.3784    466.84992    461.34875    569.69076    38315.161 
   81600    296.27331   -1441.4087    461.78797    353.02922   -12.859198    38315.161 
   81700    290.55738   -1465.3325    465.59685    307.20377   -213.55462    38315.161 
   81800    293.74555   -1450.7182    432.13225    302.69398   -599.82008    38315.161 
   81900     297.3987   -1403.4515    445.09282    379.35325   -455.97466    38315.161 
   82000    286.18099   -1418.0599    449.98853     319.1828   -169.20002    38315.161 
   82100    304.77139   -1430.7279    460.88149    401.02824    -554.4511    38315.161 
   82200    302.07131   -1431.4413    447.16266     374.4509   -67.677913    38315.161 
   82300    300.46176   -1421.6242    469.74265    399.60816   -776.02194    38315.161 
   82400     304.3904   -1429.2808    459.52527    399.40539    -731.7941    38315.161 
   82500    298.55896   -1442.8957    443.78361    343.81875   -482.98957    38315.161 
   82600    308.64173   -1429.0427    442.32313    401.56402    -268.5207    38315.161 
   82700    292.09689    -1401.477    450.76248    363.14968   -72.052737    38315.161 
   82800    307.36784   -1422.8875    465.80209    425.46819   -436.51759    38315.161 
   82900    293.36292   -1411.9439    470.00824    377.62317    -450.3585    38315.161 
   83000     302.1192   -1483.2414    467.93485    343.63842   -38.458186    38315.161 
   83100    301.59409   -1471.0225    462.52133    348.08185     199.2739    38315.161 
   83200    300.02481   -1401.7312    447.01047    394.80354    -163.3489    38315.161 
   83300    301.23894   -1368.7192    477.17634    463.44263   -413.27227    38315.161 
   83400    310.00996   -1465.4983    447.40704    376.34666    50.316637    38315.161 
   83500    295.93207   -1442.2186    402.95427    291.85069   -225.27231    38315.161 
   83600     305.6745   -1401.8422    472.84049    445.93513    -79.55878    38315.161 
   83700    305.39418   -1457.7034    447.30837    363.28093    255.21939    38315.161 
   83800     301.0171   -1372.1808    459.47686    441.28369    353.59233    38315.161 
   83900    311.06995   -1402.2456    434.11459    431.07485    30.959234    38315.161 
   84000    302.30669   -1408.8865    440.48293    391.38473    282.79594    38315.161 
   84100    295.84518   -1371.7224    458.72596    417.72772    291.42918    38315.161 
   84200    301.77911   -1392.8011    461.50321    426.11729   -124.45363    38315.161 
   84300    292.00199   -1386.9807    444.99461    371.45125    400.09405    38315.161 
   84400    295.85347   -1370.9436    467.39658    427.21446    743.68679    38315.161 
   84500      295.791   -1366.0128    473.68405    438.15164     320.0378    38315.161 
   84600    295.50343   -1365.8622    440.15878    403.48356    521.94896    38315.161 
   84700     310.4771   -1400.2749    446.58355    442.84782   -186.75293    38315.161 
   84800    299.97958   -1384.8789    468.25043    432.69234   -203.52849    38315.161 
   84900     298.8724   -1394.9363    453.78708     403.1915   -630.48103    38315.161 
   85000    306.73075   -1399.9949    471.48955    451.18254   -804.55916    38315.161 
   85100    298.53233    -1412.428    456.88905    387.27213   -484.28081    38315.161 
   85200    299.80837   -1442.1465    439.35904    345.76332    -390.5095    38315.161 
   85300    302.74118   -1386.5971    461.07727    436.22285   -265.32593    38315.161 
   85400    292.26757    -1444.084    452.16605    322.71397    271.10995    38315.161 
   85500    300.38664   -1435.0586    446.38629    362.47953    106.89781    38315.161 
   85600    290.89958    -1415.231    464.44897    357.69658   -193.08062    38315.161 
   85700    308.21537   -1407.4198    459.46099    438.40702   -75.223997    38315.161 
   85800    290.94977   -1427.6096    457.89047    338.98527    -434.8909    38315.161 
   85900    297.96588   -1396.1372     472.4409    416.56685   -771.42932    38315.161 
   86000    303.52448   -1405.6815    458.46348    418.04796   -492.26713    38315.161 
   86100    302.40298   -1438.1341    447.31891    369.40624    -1.038025    38315.161 
   86200    292.55168   -1469.1672    439.79736    286.54006    197.67542    38315.161 
   86300    299.88774   -1467.9226    450.36056    331.34569    430.20847    38315.161 
   86400    302.18771   -1463.2887    470.01283    365.97722    237.77642    38315.161 
[...]
  984300      298.464    -1472.492    478.15346    348.16513    328.49407    38315.161 
  984400    299.40516   -1468.3078     485.1664    363.59567    -409.4741    38315.161 
  984500     304.0169   -1486.4329    482.82061    363.86863    37.373858    38315.161 
  984600    295.27199   -1500.5712     480.8937     308.4684   -344.31345    38315.161 
  984700    301.56898   -1507.6461    481.96673    330.79071   -350.13673    38315.161 
  984800    300.49326   -1494.9109    487.06995    343.79048    223.06547    38315.161 
  984900    301.67283   -1501.1215    511.43405    367.24971   -93.222585    38315.161 
  985000    297.08177   -1532.6999    474.26185     277.8483   -282.70334    38315.161 
  985100    305.74489   -1531.5942    482.66951    326.32882   -422.55275    38315.161 
  985200    309.61626   -1556.3558    439.38433    275.69562   -205.16442    38315.161 
  985300    303.83314   -1529.4833     484.6902     321.8613    186.97182    38315.161 
  985400    303.70223   -1524.8787    480.32797    321.51475   -67.866103    38315.161 
  985500    302.88834   -1523.0253    478.04218    317.42145    28.509232    38315.161 
  985600    294.22253   -1533.3552    494.86046    284.93064   -150.77048    38315.161 
  985700    301.95264   -1503.0989    489.52043    344.61731   0.53356817    38315.161 
  985800    301.28717    -1515.955    462.44433    301.69184   -131.16554    38315.161 
  985900     296.8362   -1500.4028     492.1014    326.88037   -239.93743    38315.161 
  986000     288.0088   -1486.6715    464.01668      272.821   -595.62183    38315.161 
  986100      302.012   -1514.8846    456.53358     300.1117   -372.32643    38315.161 
  986200    303.55864    -1515.252    500.87464    351.04221   -178.91399    38315.161 
  986300    296.96816   -1503.9938    468.27229    300.05387   -187.77341    38315.161 
  986400     299.5056   -1532.3222     463.3301    278.19684   -137.03887    38315.161 
  986500    295.20002   -1524.2118    481.76161    285.37203    72.540495    38315.161 
  986600    307.32678   -1505.6503    468.42977    345.14833    41.821902    38315.161 
  986700    296.52657   -1524.5543    466.34617    275.58093     -26.7392    38315.161 
  986800    301.96474   -1511.1956    498.88001    345.93454   -918.23199    38315.161 
  986900    303.04022   -1484.6881    449.48639      327.886     -712.648    38315.161 
  987000    293.90284   -1528.6807    487.34033    280.64707   -399.06239    38315.161 
  987100    297.92475   -1541.4022     488.8745     287.5504    117.55846    38315.161 
  987200    303.93822   -1557.6749    466.18463    275.63669       215.33    38315.161 
  987300    299.33554   -1588.6229    499.30746    257.10852   -207.09905    38315.161 
  987400    293.87678   -1545.8194    475.17604    251.22686    532.08328    38315.161 
  987500    289.85931   -1566.4928    469.10485    206.41151    242.84925    38315.161 
  987600     302.7347   -1558.1557    506.68311    310.24094    148.46698    38315.161 
  987700    293.28643   -1568.2984    473.18288    224.09922    310.80364    38315.161 
  987800    307.18458   -1565.5104    457.37617    273.59502    17.471883    38315.161 
  987900    296.22432   -1541.4292    505.96561    296.96596   -514.37295    38315.161 
  988000    297.66657   -1544.1271    463.67936     258.4691   -549.34057    38315.161 
  988100    308.76932   -1506.1955    478.05576    360.71777   -112.64726    38315.161 
  988200    296.32814    -1483.524    501.20222    350.57472   -412.42767    38315.161 
  988300    291.92723   -1543.2724    463.12203    232.95065    314.02952    38315.161 
  988400    306.76868   -1474.7531    497.01697    402.12243     125.9825    38315.161 
  988500    298.80168   -1537.1883    504.90428    311.73863   -171.79096    38315.161 
  988600    296.29645   -1552.5389    497.43689    277.65195   -346.04981    38315.161 
  988700    298.83202   -1551.2518    487.27043     280.1777   -171.60553    38315.161 
  988800    295.38188   -1556.2623    485.70004      258.078   -386.86819    38315.161 
  988900    299.38335   -1566.3373    457.64545    237.94715   -635.92085    38315.161 
  989000    305.05911    -1533.421    508.63386    347.38165   -112.99652    38315.161 
  989100     294.4126   -1553.3281    504.97119    275.92342     383.1684    38315.161 
  989200    306.58775   -1532.7811    503.53643        349.8    429.55525    38315.161 
  989300    300.80972   -1550.8226    471.67768    273.90989    295.36888    38315.161 
  989400    298.52236   -1540.8406    510.79893    312.72452     429.1481    38315.161 
  989500    306.91891   -1565.8299    457.26093    271.96529    119.14843    38315.161 
  989600     321.0169   -1556.0782    465.89639    353.76579   -53.800101    38315.161 
  989700    298.02903   -1520.7954    464.62499    284.37684   -229.78408    38315.161 
  989800    305.18901   -1521.3306    477.60108    329.02361   -154.69504    38315.161 
  989900    304.58274   -1547.5157    477.40636    299.91672   -101.11088    38315.161 
  990000    289.83758   -1559.7072    487.85172    231.84624    403.59985    38315.161 
  990100    307.28471   -1542.8648     476.6836    315.99844    41.151383    38315.161 
  990200    308.37552    -1506.984    475.59153    355.69364   -38.929003    38315.161 
  990300    292.92264   -1545.5411    478.81659     250.8539   -392.99049    38315.161 
  990400    297.23179   -1532.5146    510.10241      314.549   -278.09383    38315.161 
  990500    302.96617   -1493.7541    489.82272    358.82323    231.65057    38315.161 
  990600    301.19723   -1497.7339    471.41414    328.47811    401.38344    38315.161 
  990700    301.68213   -1522.0775    508.54785    343.44938    208.50877    38315.161 
  990800     301.8756   -1497.0768    502.02483    362.79725    182.35835    38315.161 
  990900    287.98522   -1497.5396    515.79322    313.62327    21.841824    38315.161 
  991000    295.17159   -1497.6828    494.96051    324.97202    592.09123    38315.161 
  991100    306.95769   -1519.9381     496.6542    357.42476    546.73603    38315.161 
  991200    305.19898   -1493.8921    511.45997    390.36585    455.89547    38315.161 
  991300    288.73355    -1511.779    460.26428    247.22102    82.364918    38315.161 
  991400    311.71998   -1492.9895    483.82857    392.96878    443.28332    38315.161 
  991500    302.28561    -1470.869    492.55304     381.3775   -63.202495    38315.161 
  991600    311.41869    -1504.824    503.74376     399.6942    453.16455    38315.161 
  991700    302.13641   -1473.3516    493.40332    379.07405    133.80274    38315.161 
  991800    300.96027   -1493.3885    489.25201    349.59559    -279.1619    38315.161 
  991900    309.97679   -1449.6791     487.2521    431.86176    -520.7991    38315.161 
  992000    297.58923   -1474.6653     505.7439    369.64755   -666.79433    38315.161 
  992100     289.3185   -1484.9019    465.55497    282.01993   -707.35948    38315.161 
  992200    303.73655   -1467.2795    519.39863    418.33903   -550.17593    38315.161 
  992300    301.26995   -1449.0706    506.15651    412.21091   -253.71713    38315.161 
  992400    299.26764   -1471.4846    481.90528    356.53922    228.20211    38315.161 
  992500     300.7593   -1488.4139    511.84343    376.25758   -162.88255    38315.161 
  992600    302.05809   -1504.7773    476.50973    330.40255   -245.72653    38315.161 
  992700    304.03373    -1529.723    486.27788    324.11152    338.55523    38315.161 
  992800    294.59322   -1525.4724     498.2017    297.82212    130.79179    38315.161 
  992900    305.97639   -1527.7412    491.91093    340.46452    316.75072    38315.161 
  993000    301.82811   -1489.7063    515.00828    382.93764    493.18986    38315.161 
  993100    300.50065    -1499.217    485.22009    337.66775     48.17779    38315.161 
  993200    292.12051   -1479.0911    473.72729    308.60665    -216.9868    38315.161 
  993300     304.3906   -1516.6524     519.6456    372.15503   -634.68428    38315.161 
  993400    298.98983   -1444.7698    512.79322    412.89234   -254.98861    38315.161 
  993500    309.51877   -1494.6867    501.94985    399.49171   -738.83867    38315.161 
  993600    307.67727   -1466.0044    502.79941     420.7404   -958.74051    38315.161 
  993700    297.45564   -1496.7273    477.64572    318.88651   -702.49735    38315.161 
  993800    299.86378   -1482.5578    495.73832    361.98045    91.141954    38315.161 
  993900    293.32066   -1495.9047    497.21634    320.68037    157.04552    38315.161 
  994000     292.6707   -1470.0379    491.32724    337.73455    348.78955    38315.161 
  994100    298.80061   -1522.3746    512.25531    333.89848    331.90773    38315.161 
  994200    295.22704   -1526.5902    481.03316    282.38665    828.20739    38315.161 
  994300     292.5926    -1461.512    509.82798    364.40991    1181.9329    38315.161 
  994400    293.04258   -1490.3426    497.77443     325.5497    871.39804    38315.161 
  994500    302.61331   -1462.0114     498.8056    397.96171    1048.5754    38315.161 
  994600    299.91623   -1474.6605    516.51359    390.88904    394.04008    38315.161 
  994700    301.25213   -1511.0256    467.28393    311.30317    130.90209    38315.161 
  994800    304.36527   -1459.8826    491.46348    400.62871   -27.637445    38315.161 
  994900    290.24048   -1507.8542    516.28334    313.94312    1032.0421    38315.161 
  995000     306.2114   -1526.5206    477.40848    328.23971    938.57328    38315.161 
  995100    293.68446   -1523.7082    503.08539    300.38232    357.50276    38315.161 
  995200     292.7738   -1523.4067    493.62112    287.12338   -60.844358    38315.161 
  995300    300.49897   -1466.7119    491.73648    376.68173   -288.49934    38315.161 
  995400    298.92672   -1479.8496    503.79851    368.53391   -420.73625    38315.161 
  995500    290.89613   -1504.4684    482.84322    286.83788    -802.1638    38315.161 
  995600    303.45094   -1527.0654    485.30229    323.17207   -599.22076    38315.161 
  995700    308.53742   -1495.9393    510.26858    402.14368    160.14304    38315.161 
  995800    293.58672    -1513.681    511.40697    318.29151    96.221615    38315.161 
  995900     305.1223   -1523.4133    507.23392    356.27366    310.86615    38315.161 
  996000    297.38076   -1555.8853    486.69475    268.44071    769.93347    38315.161 
  996100    290.68798   -1532.3733    491.04737    266.20093    736.91449    38315.161 
  996200    291.54745   -1506.3041     480.9953    286.08395    540.75751    38315.161 
  996300    301.66042   -1507.7081    485.02747    334.20069    679.67404    38315.161 
  996400    292.68217   -1524.2437    507.19609    299.44917    281.69768    38315.161 
  996500    306.78238   -1511.2945    497.79054    366.41615    181.35875    38315.161 
  996600     301.2052   -1524.9973    499.92993    329.76637   -73.657228    38315.161 
  996700    301.50567   -1539.8387    494.08288    310.42946    149.85462    38315.161 
  996800    297.28856   -1527.2862    496.22134    306.15171    302.85106    38315.161 
  996900    312.08233    -1492.424    518.56045    429.89602    98.058848    38315.161 
  997000    293.10036   -1490.3425    510.07807    338.11346    1.0177219    38315.161 
  997100    305.59142   -1511.5325    493.09262    356.12332   -24.145896    38315.161 
  997200    302.58817   -1517.1881    508.66915     352.5355   -54.470505    38315.161 
  997300    293.74739   -1503.1312    515.48264    333.63962   -336.26261    38315.161 
  997400    305.55779   -1498.7823    494.33778    369.96741     588.6435    38315.161 
  997500    299.39404   -1552.7318    491.81475    285.76998    122.27717    38315.161 
  997600    293.66989   -1523.2918    486.48294    284.13078   -3.8901012    38315.161 
  997700    306.51445   -1471.8905    516.73938    423.56388   -99.068635    38315.161 
  997800    293.98977   -1433.3443    502.93927    391.97344   -142.78459    38315.161 
  997900    294.09888    -1458.087    524.24653    389.02871   -403.93479    38315.161 
  998000    295.13376   -1466.4878    498.05848    359.09489    314.21181    38315.161 
  998100    294.39317   -1505.7382    490.17649    308.63122   -486.87329    38315.161 
  998200    288.00364   -1440.2901    494.50961    349.67214   -330.76676    38315.161 
  998300    300.79986   -1475.3515    483.02391    360.68289    49.177804    38315.161 
  998400     288.4473   -1466.4301    505.79691    336.81496   -350.77234    38315.161 
  998500    289.85011   -1487.1835    494.95529    311.52984   -435.52407    38315.161 
  998600    295.96117   -1497.9749    489.41279     322.6838   -386.46537    38315.161 
  998700    290.44073   -1514.6369    492.00706    283.78488   -718.72238    38315.161 
  998800    303.56956   -1524.3708    483.05011    324.14806   -316.65955    38315.161 
  998900    304.05442   -1510.8648    482.65242    339.43731   -358.74622    38315.161 
  999000    304.06518   -1483.7549    471.43764     355.3808   -178.46753    38315.161 
  999100    294.13941   -1509.4868    504.99657    318.56127   -528.92623    38315.161 
  999200    297.07225   -1498.4974    503.40499    341.15111   -638.34883    38315.161 
  999300    300.64998   -1457.8619    496.99725    391.47166   -709.63907    38315.161 
  999400    302.81158   -1475.7666    482.73003    369.02271    -398.6578    38315.161 
  999500    307.66351   -1480.2497    500.33827    403.97211   -662.26356    38315.161 
  999600    298.60214   -1463.2731     477.8083    357.66032   -641.40974    38315.161 
  999700    309.42439   -1496.2233    484.06967    379.65033    153.91831    38315.161 
  999800     302.6511   -1499.4952    481.88158    343.72385    308.18621    38315.161 
  999900    308.17031   -1539.9277    487.50548    333.74084   -6.9109252    38315.161 
 1000000    308.03222   -1480.6438    480.38363    385.28178   -216.73561    38315.161 
 1000100    300.69667   -1449.0039    472.63378    376.17626   -725.00682    38315.161 
 1000200    313.51446   -1464.8377    489.39554    434.75918    -428.4847    38315.161 
 1000300    301.21793   -1465.3177    493.16953    382.74283   -263.78152    38315.161 
 1000400    304.74465    -1496.902    473.83739    347.68978    73.160494    38315.161 
 1000500    288.37469   -1513.4394    501.75841    285.44058   -384.45836    38315.161 
 1000600    296.15465   -1492.5361    489.15122    328.73124    278.70019    38315.161 
 1000700    311.18067   -1485.2565    494.94415    409.39146    612.06823    38315.161 
 1000800    286.08705   -1447.2979    488.24627    327.78002    537.84036    38315.161 
 1000900    297.01231   -1513.5387    477.26533    299.70062   -115.62323    38315.161 
 1001000    304.37834   -1508.2414    477.49032    338.35556   -416.24029    38315.161 
 1001100    302.08774   -1494.2386    473.31897    337.88387   -452.44976    38315.161 
 1001200    294.74959   -1499.9924    492.94488    318.74865   -772.81312    38315.161 
 1001300    290.98496   -1514.0918     475.0324    269.80332   -328.93571    38315.161 
 1001400    297.19255   -1510.1936    473.16004     299.7511    38.124461    38315.161 
 1001500    306.95608    -1466.508    508.34976    422.54321    191.18086    38315.161 
 1001600    312.51817    -1483.304    488.41506    410.83105    195.64033    38315.161 
 1001700    292.41955   -1502.9635       470.43      282.782    227.78178    38315.161 
 1001800    296.70956   -1519.0464    483.68566    299.25149    96.598693    38315.161 
 1001900    293.87929   -1534.9219    455.42675    242.38629   -175.60365    38315.161 
 1002000    304.07843   -1540.2809    484.36558    311.84231     610.3152    38315.161 
 1002100    299.44922   -1541.7324    466.46272    271.66565   -35.010138    38315.161 
 1002200    297.25407   -1507.3745     482.3812    312.06808    13.219147    38315.161 
 1002300    295.81122   -1488.4612    489.95778    332.06799   -502.65469    38315.161 
 1002400    312.55061   -1534.9964    466.66532    337.53476   -69.972665    38315.161 
 1002500    292.05703   -1507.1594    471.44231    277.96781   -189.42167    38315.161 
 1002600    294.06773   -1483.3406     488.7983    328.18681   -126.27354    38315.161 
 1002700    285.68623   -1521.6675    473.36437    236.72568   -43.186189    38315.161 
 1002800    308.09149   -1529.0926    482.40099    339.11694    666.36494    38315.161 
 1002900     295.2844   -1516.1553    493.18914    305.23558    778.25363    38315.161 
 1003000    301.23242   -1538.4538    483.73452    300.23695    403.25412    38315.161 
 1003100    306.14935   -1569.6039    475.86751     283.3363    712.37368    38315.161 
 1003200    292.93083   -1535.1868    513.67457    296.10304    124.69336    38315.161 
 1003300     305.0076   -1541.5281    469.13973    299.54873    409.57767    38315.161 
 1003400    292.12481   -1519.4059     482.8407    277.42452    549.53448    38315.161 
 1003500    296.57965    -1518.342    476.52915    292.21501     42.44793    38315.161 
 1003600    296.80474   -1526.2277    466.60591    275.41855    268.43601    38315.161 
 1003700    302.29607   -1524.7728    492.19569    327.16342    582.02682    38315.161 
 1003800    296.39245   -1509.4467    467.91029    291.64935    299.61075    38315.161 
 1003900    296.94822   -1539.4083     492.5642     288.8416   -103.58616    38315.161 
 1004000    294.27252   -1539.2054    472.10231    256.54715   -862.46026    38315.161 
 1004100    293.21262   -1546.4746    481.78311     254.1913     -129.661    38315.161 
 1004200    297.79573   -1536.6213    461.94793     264.8244    38.209873    38315.161 
 1004300    290.29771   -1563.2278    499.13567    241.67932   -244.90081    38315.161 
 1004400    301.82594    -1533.022    501.63881    326.24265    232.66107    38315.161 
 1004500    295.92242   -1520.4179    496.26976    306.92345   -314.69096    38315.161 
 1004600    290.99917   -1505.7116    496.67765    299.89262   -551.12874    38315.161 
 1004700    297.46244   -1544.7861    477.79623    271.00877    6.5346631    38315.161 
 1004800    297.69274   -1504.5744    504.12538    338.58551    9.3887591    38315.161 
 1004900    296.66975   -1488.0429     473.0348    319.42504   -88.375877    38315.161 
 1004951    307.15253   -1498.5611    479.32562    362.34959   -5.8577872    38315.161 
Loop time of 599.12 on 32 procs for 1000000 steps with 1510 atoms

Performance: 144.211 ns/day, 0.166 hours/ns, 1669.114 timesteps/s
100.0% CPU use with 32 MPI tasks x no OpenMP threads

MPI task timing breakdown:
Section |  min time  |  avg time  |  max time  |%varavg| %total
---------------------------------------------------------------
Pair    | 239.12     | 269.31     | 294.08     |  74.8 | 44.95
Bond    | 1.3745     | 1.529      | 1.6404     |   4.7 |  0.26
Neigh   | 39.032     | 39.122     | 39.196     |   1.0 |  6.53
Comm    | 251.94     | 276.62     | 306.68     |  73.2 | 46.17
Output  | 0.39496    | 0.41206    | 0.83951    |  12.0 |  0.07
Modify  | 8.7279     | 9.009      | 9.3654     |   6.3 |  1.50
Other   |            | 3.111      |            |       |  0.52

Nlocal:        47.1875 ave          76 max           9 min
Histogram: 2 2 1 2 3 6 4 5 5 2
Nghost:        1955.78 ave        2135 max        1794 min
Histogram: 7 6 3 0 0 0 0 6 7 3
Neighs:        5343.44 ave        9579 max         680 min
Histogram: 3 1 2 5 3 4 5 5 2 2

Total # of neighbors = 170990
Ave neighs/atom = 113.23841
Ave special neighs/atom = 2.0158940
Neighbor list builds = 49766
Dangerous builds = 0

# Output the system volume
variable v equal vol
print 'The system volume is $v'
The system volume is 38315.1606129869

# Outputs
variable A equal xhi-xlo
variable B equal yhi-ylo
variable C equal zhi-zlo
variable D equal xy
variable E equal xz
variable F equal yz
print 'Lattice vectors'
Lattice vectors
print '$A 0 0'
33.7124423506293 0 0
print '$D $B 0'
0 33.7124423506293 0
print '$E $F $C'
0 0 33.7124423506293
Total wall time: 0:10:03
