LAMMPS data file
 1511 atoms
 1011 bonds
 516 angles
 20 dihedrals
 5 impropers
 6 atom types
 6 bond types
 4 angle types
 3 dihedral types
 1 improper types
 0 15 xlo xhi
 0 15 ylo yhi
 0 15 zlo zhi
 0 0 0 xy xz yz

# Atom types
#
# 1 C_R
# 2 C_2
# 3 N_2
# 4 H_
# 5 H__HB
# 6 O_3

# Bond Coeffs
#
# 1 C_R*C_R
# 2 C_R*C_2
# 3 C_2*N_2
# 4 C_R*H_
# 5 C_2*H_
# 6 O_3*H__HB

# Angle Coeffs
#
# 1 C_R
# 2 C_2
# 3 N_2
# 4 O_3

# Dihedral Coeffs
#
# 1 D1
# 2 E1
# 3 C1

# Inversion Coeffs
#
# 1 1

 Masses

 1 12.01
 2 12.01
 3 14.01
 4 1.01
 5 1.01
 6 16

 Atoms # full

1 1 1 0 8.14045861347978 5.77039065834955 9.16623005128329
2 1 1 0 7.50449742200198 5.9036415718819 7.90368905512636
3 1 1 0 8.86211101979531 4.57124851045634 9.40754912140636
4 1 2 0 7.60733143172616 4.87850254908849 6.94561736136319
5 1 2 0 8.93444333505315 3.57409186372827 8.41785981760669
6 1 3 0 8.31203528881183 3.75600970918938 7.22813971124685
7 1 4 0 6.95645653514324 6.73307945062819 7.66579689125388
8 1 4 0 9.3442791072518 4.41069056854463 10.2954955402446
9 1 4 0 7.15198729748368 4.97210030651959 6.03601778505786
10 1 4 0 9.45449113818885 2.71159628457954 8.58836432899166
11 1 4 0 8.05829285275543 6.78411566604165 10.1530051201537
12 2 5 0 5.27147936794907 4.59500337409787 14.7763652319554
13 2 6 0 6.23147936794907 4.59500337409787 14.7763652319554
14 2 5 0 6.47147936794907 3.66500337409787 14.7763652319554
15 3 5 0 13.9280114443693 5.77002972521819 14.3267037451733
16 3 6 0 14.8880114443693 5.77002972521819 14.3267037451733
17 3 5 0 15.1280114443693 4.84002972521819 14.3267037451733
18 4 5 0 -0.502167873345315 3.08883709641173 10.0069736642763
19 4 6 0 0.457832126654685 3.08883709641173 10.0069736642763
20 4 5 0 0.697832126654685 2.15883709641173 10.0069736642763
21 5 5 0 8.96719101394527 8.74429465196095 9.49186976649798
22 5 6 0 9.92719101394527 8.74429465196095 9.49186976649798
23 5 5 0 10.1671910139453 7.81429465196095 9.49186976649798
24 6 5 0 2.42467234304175 4.66545888612978 4.05766857904382
25 6 6 0 3.38467234304175 4.66545888612978 4.05766857904382
26 6 5 0 3.62467234304175 3.73545888612978 4.05766857904382
27 7 5 0 11.9214941728581 1.93098744418472 1.76037570345215
28 7 6 0 12.8814941728581 1.93098744418472 1.76037570345215
29 7 5 0 13.1214941728581 1.00098744418472 1.76037570345215
30 8 5 0 9.34570592173375 5.17965177231468 12.4471635161899
31 8 6 0 10.3057059217338 5.17965177231468 12.4471635161899
32 8 5 0 10.5457059217338 4.24965177231468 12.4471635161899
33 9 5 0 7.33804760777392 2.71399425500073 3.6525091866497
34 9 6 0 8.29804760777392 2.71399425500073 3.6525091866497
35 9 5 0 8.53804760777392 1.78399425500073 3.6525091866497
36 10 5 0 7.2130461518839 13.9409588328004 8.74494468444027
37 10 6 0 8.1730461518839 13.9409588328004 8.74494468444027
38 10 5 0 8.4130461518839 13.0109588328004 8.74494468444027
39 11 5 0 1.80846482908353 5.76920008793473 14.0206044504885
40 11 6 0 2.76846482908353 5.76920008793473 14.0206044504885
41 11 5 0 3.00846482908353 4.83920008793473 14.0206044504885
42 12 5 0 3.23651987870224 3.80838276510127 5.25193721288815
43 12 6 0 4.19651987870224 3.80838276510127 5.25193721288815
44 12 5 0 4.43651987870224 2.87838276510127 5.25193721288815
45 13 5 0 6.97955499912612 3.60220214742236 2.83282186137512
46 13 6 0 7.93955499912612 3.60220214742236 2.83282186137512
47 13 5 0 8.17955499912612 2.67220214742236 2.83282186137512
48 14 5 0 11.079526369432 11.1679768205527 1.28578206058592
49 14 6 0 12.039526369432 11.1679768205527 1.28578206058592
50 14 5 0 12.279526369432 10.2379768205527 1.28578206058592
51 15 5 0 4.4531253170874 1.61383324343711 1.82366133201867
52 15 6 0 5.4131253170874 1.61383324343711 1.82366133201867
53 15 5 0 5.6531253170874 0.683833243437111 1.82366133201867
54 16 5 0 8.17440273516811 15.0372610571235 8.27998376567848
55 16 6 0 9.13440273516811 15.0372610571235 8.27998376567848
56 16 5 0 9.37440273516811 14.1072610571235 8.27998376567848
57 17 5 0 9.17604919217527 5.3238684513513 2.41592511534691
58 17 6 0 10.1360491921753 5.3238684513513 2.41592511534691
59 17 5 0 10.3760491921753 4.3938684513513 2.41592511534691
60 18 5 0 11.0320453536417 1.60605759284459 4.89591997233219
61 18 6 0 11.9920453536417 1.60605759284459 4.89591997233219
62 18 5 0 12.2320453536417 0.67605759284459 4.89591997233219
63 19 5 0 10.3423617342208 4.82337915263139 13.1270219769794
64 19 6 0 11.3023617342208 4.82337915263139 13.1270219769794
65 19 5 0 11.5423617342208 3.89337915263139 13.1270219769794
66 20 5 0 10.3182882866543 1.98586896801367 0.820305630331859
67 20 6 0 11.2782882866543 1.98586896801367 0.820305630331859
68 20 5 0 11.5182882866543 1.05586896801367 0.820305630331859
69 21 5 0 10.6372911021765 11.677565394612 9.39946123980917
70 21 6 0 11.5972911021765 11.677565394612 9.39946123980917
71 21 5 0 11.8372911021765 10.747565394612 9.39946123980917
72 22 5 0 7.02885187740438 0.922843685084954 12.2695328900591
73 22 6 0 7.98885187740438 0.922843685084954 12.2695328900591
74 22 5 0 8.22885187740438 -0.00715631491504615 12.2695328900591
75 23 5 0 4.12884731238708 14.0598409091495 13.8270699593704
76 23 6 0 5.08884731238708 14.0598409091495 13.8270699593704
77 23 5 0 5.32884731238708 13.1298409091495 13.8270699593704
78 24 5 0 11.992384321494 13.954338005688 9.73189020529389
79 24 6 0 12.952384321494 13.954338005688 9.73189020529389
80 24 5 0 13.192384321494 13.024338005688 9.73189020529389
81 25 5 0 13.0820179071464 7.09323121042922 8.49056085920893
82 25 6 0 14.0420179071464 7.09323121042922 8.49056085920893
83 25 5 0 14.2820179071464 6.16323121042922 8.49056085920893
84 26 5 0 13.8524468200933 6.24322186148725 8.44578536460176
85 26 6 0 14.8124468200933 6.24322186148725 8.44578536460176
86 26 5 0 15.0524468200933 5.31322186148725 8.44578536460176
87 27 5 0 -0.298781198943034 5.97397766233422 8.80196202546358
88 27 6 0 0.661218801056966 5.97397766233422 8.80196202546358
89 27 5 0 0.901218801056966 5.04397766233422 8.80196202546358
90 28 5 0 0.852528700344265 5.45078028616495 3.09919910388999
91 28 6 0 1.81252870034426 5.45078028616495 3.09919910388999
92 28 5 0 2.05252870034426 4.52078028616495 3.09919910388999
93 29 5 0 10.3427174307592 4.07603468554094 1.96189507143572
94 29 6 0 11.3027174307592 4.07603468554094 1.96189507143572
95 29 5 0 11.5427174307592 3.14603468554094 1.96189507143572
96 30 5 0 10.4758594468888 0.575133888460696 2.95851712930016
97 30 6 0 11.4358594468888 0.575133888460696 2.95851712930016
98 30 5 0 11.6758594468888 -0.354866111539304 2.95851712930016
99 31 5 0 3.44191321215592 13.514210071126 11.9048870459665
100 31 6 0 4.40191321215592 13.514210071126 11.9048870459665
101 31 5 0 4.64191321215592 12.584210071126 11.9048870459665
102 32 5 0 10.1192237965018 14.6584731158242 14.8646866099443
103 32 6 0 11.0792237965018 14.6584731158242 14.8646866099443
104 32 5 0 11.3192237965018 13.7284731158242 14.8646866099443
105 33 5 0 7.85940899091773 13.3910351576656 11.4952693297528
106 33 6 0 8.81940899091773 13.3910351576656 11.4952693297528
107 33 5 0 9.05940899091773 12.4610351576656 11.4952693297528
108 34 5 0 12.6196091940813 2.25713988690637 13.7327142362483
109 34 6 0 13.5796091940813 2.25713988690637 13.7327142362483
110 34 5 0 13.8196091940813 1.32713988690637 13.7327142362483
111 35 5 0 7.4933988768328 1.77991709945723 0.145533556351438
112 35 6 0 8.4533988768328 1.77991709945723 0.145533556351438
113 35 5 0 8.6933988768328 0.849917099457234 0.145533556351438
114 36 5 0 1.08706297745928 10.0508816160169 1.01874063606374
115 36 6 0 2.04706297745928 10.0508816160169 1.01874063606374
116 36 5 0 2.28706297745928 9.12088161601685 1.01874063606374
117 37 5 0 11.3266718694661 4.10796136170626 11.1289347766433
118 37 6 0 12.2866718694661 4.10796136170626 11.1289347766433
119 37 5 0 12.5266718694661 3.17796136170626 11.1289347766433
120 38 5 0 8.42880485390313 12.133534721043 5.19223948940635
121 38 6 0 9.38880485390313 12.133534721043 5.19223948940635
122 38 5 0 9.62880485390313 11.203534721043 5.19223948940635
123 39 5 0 3.57385495721363 12.0557175476011 0.719625188503414
124 39 6 0 4.53385495721363 12.0557175476011 0.719625188503414
125 39 5 0 4.77385495721363 11.1257175476011 0.719625188503414
126 40 5 0 14.1186001295876 3.76884848851711 9.92945199483074
127 40 6 0 15.0786001295876 3.76884848851711 9.92945199483074
128 40 5 0 15.3186001295876 2.83884848851711 9.92945199483074
129 41 5 0 4.33210237344727 9.4263772996515 6.7135710013099
130 41 6 0 5.29210237344727 9.4263772996515 6.7135710013099
131 41 5 0 5.53210237344727 8.4963772996515 6.7135710013099
132 42 5 0 10.2090311811492 7.65702757443301 9.72655424731784
133 42 6 0 11.1690311811492 7.65702757443301 9.72655424731784
134 42 5 0 11.4090311811492 6.72702757443301 9.72655424731784
135 43 5 0 9.98644408813678 1.04395485524088 6.83940541232005
136 43 6 0 10.9464440881368 1.04395485524088 6.83940541232005
137 43 5 0 11.1864440881368 0.113954855240881 6.83940541232005
138 44 5 0 6.60692525256425 3.50706284557469 6.45981055218726
139 44 6 0 7.56692525256425 3.50706284557469 6.45981055218726
140 44 5 0 7.80692525256425 2.57706284557469 6.45981055218726
141 45 5 0 1.3431389413029 6.93520661368035 4.87176983384416
142 45 6 0 2.3031389413029 6.93520661368035 4.87176983384416
143 45 5 0 2.5431389413029 6.00520661368035 4.87176983384416
144 46 5 0 14.2034481866006 5.16098653123714 11.3789998157881
145 46 6 0 15.1634481866006 5.16098653123714 11.3789998157881
146 46 5 0 15.4034481866006 4.23098653123714 11.3789998157881
147 47 5 0 2.74574740251526 10.5165761992708 8.3318363071885
148 47 6 0 3.70574740251526 10.5165761992708 8.3318363071885
149 47 5 0 3.94574740251526 9.58657619927079 8.3318363071885
150 48 5 0 8.57235521703958 8.65710519062355 9.49280257802457
151 48 6 0 9.53235521703959 8.65710519062355 9.49280257802457
152 48 5 0 9.77235521703959 7.72710519062355 9.49280257802457
153 49 5 0 7.60946522394195 14.3481028957199 2.91183937224559
154 49 6 0 8.56946522394195 14.3481028957199 2.91183937224559
155 49 5 0 8.80946522394195 13.4181028957199 2.91183937224559
156 50 5 0 9.62827826544642 3.24864778592251 1.88532196800224
157 50 6 0 10.5882782654464 3.24864778592251 1.88532196800224
158 50 5 0 10.8282782654464 2.31864778592251 1.88532196800224
159 51 5 0 9.07500797577202 14.9359282447863 14.5357790775597
160 51 6 0 10.035007975772 14.9359282447863 14.5357790775597
161 51 5 0 10.275007975772 14.0059282447863 14.5357790775597
162 52 5 0 13.0056104091648 11.7391563665029 0.312004341976717
163 52 6 0 13.9656104091648 11.7391563665029 0.312004341976717
164 52 5 0 14.2056104091648 10.8091563665029 0.312004341976717
165 53 5 0 5.27658850464039 14.8328842599317 12.7443479408976
166 53 6 0 6.23658850464039 14.8328842599317 12.7443479408976
167 53 5 0 6.47658850464039 13.9028842599317 12.7443479408976
168 54 5 0 3.7447029612679 2.45765266166069 2.89707435294986
169 54 6 0 4.7047029612679 2.45765266166069 2.89707435294986
170 54 5 0 4.9447029612679 1.52765266166069 2.89707435294986
171 55 5 0 8.85480600918643 12.9104896964878 8.82521909661591
172 55 6 0 9.81480600918643 12.9104896964878 8.82521909661591
173 55 5 0 10.0548060091864 11.9804896964878 8.82521909661591
174 56 5 0 1.31665118082426 7.11784430587664 12.5398928811774
175 56 6 0 2.27665118082427 7.11784430587664 12.5398928811774
176 56 5 0 2.51665118082427 6.18784430587664 12.5398928811774
177 57 5 0 4.4348969023861 12.0351271090936 6.4741992065683
178 57 6 0 5.3948969023861 12.0351271090936 6.4741992065683
179 57 5 0 5.6348969023861 11.1051271090936 6.4741992065683
180 58 5 0 3.05573429374024 0.505588696515188 2.3384853056632
181 58 6 0 4.01573429374024 0.505588696515188 2.3384853056632
182 58 5 0 4.25573429374024 -0.424411303484812 2.3384853056632
183 59 5 0 -0.437677150620148 5.42886095977388 11.9005582365207
184 59 6 0 0.522322849379852 5.42886095977388 11.9005582365207
185 59 5 0 0.762322849379852 4.49886095977388 11.9005582365207
186 60 5 0 9.37724200819619 2.18120216665789 1.62371047656052
187 60 6 0 10.3372420081962 2.18120216665789 1.62371047656052
188 60 5 0 10.5772420081962 1.25120216665789 1.62371047656052
189 61 5 0 10.8786197709572 14.7447421638668 6.54660259955563
190 61 6 0 11.8386197709572 14.7447421638668 6.54660259955563
191 61 5 0 12.0786197709572 13.8147421638668 6.54660259955563
192 62 5 0 0.819708146592602 13.0883070504665 3.61064868746325
193 62 6 0 1.7797081465926 13.0883070504665 3.61064868746325
194 62 5 0 2.0197081465926 12.1583070504665 3.61064868746325
195 63 5 0 8.25642564377747 6.60936386132613 6.40353118185885
196 63 6 0 9.21642564377747 6.60936386132613 6.40353118185885
197 63 5 0 9.45642564377748 5.67936386132613 6.40353118185885
198 64 5 0 0.275199540629983 8.79288586479612 9.39534333650954
199 64 6 0 1.23519954062998 8.79288586479612 9.39534333650954
200 64 5 0 1.47519954062998 7.86288586479612 9.39534333650954
201 65 5 0 6.81103141207248 12.9616280928627 12.6569804234896
202 65 6 0 7.77103141207248 12.9616280928627 12.6569804234896
203 65 5 0 8.01103141207248 12.0316280928627 12.6569804234896
204 66 5 0 9.25830068226904 4.59084467537701 0.715203881263733
205 66 6 0 10.218300682269 4.59084467537701 0.715203881263733
206 66 5 0 10.458300682269 3.66084467537701 0.715203881263733
207 67 5 0 11.6415890380461 4.18094301171601 2.43415452539921
208 67 6 0 12.6015890380461 4.18094301171601 2.43415452539921
209 67 5 0 12.8415890380461 3.25094301171601 2.43415452539921
210 68 5 0 2.20200026800856 4.54752419883385 8.84299927856773
211 68 6 0 3.16200026800856 4.54752419883385 8.84299927856773
212 68 5 0 3.40200026800856 3.61752419883385 8.84299927856773
213 69 5 0 4.5171844695881 5.70080531918444 13.9437333634123
214 69 6 0 5.4771844695881 5.70080531918444 13.9437333634123
215 69 5 0 5.7171844695881 4.77080531918444 13.9437333634123
216 70 5 0 5.46326280964538 7.45724969351664 7.5095282366965
217 70 6 0 6.42326280964538 7.45724969351664 7.5095282366965
218 70 5 0 6.66326280964538 6.52724969351664 7.5095282366965
219 71 5 0 1.06072110749781 0.532193017834798 6.35309030301869
220 71 6 0 2.02072110749781 0.532193017834798 6.35309030301869
221 71 5 0 2.26072110749781 -0.397806982165203 6.35309030301869
222 72 5 0 13.1246603156626 5.99913097144105 5.64132680534385
223 72 6 0 14.0846603156626 5.99913097144105 5.64132680534385
224 72 5 0 14.3246603156626 5.06913097144105 5.64132680534385
225 73 5 0 12.5388207232766 5.99156057968736 4.68919750652276
226 73 6 0 13.4988207232766 5.99156057968736 4.68919750652276
227 73 5 0 13.7388207232766 5.06156057968736 4.68919750652276
228 74 5 0 6.67594295038842 12.3927516913414 14.7227864689194
229 74 6 0 7.63594295038842 12.3927516913414 14.7227864689194
230 74 5 0 7.87594295038842 11.4627516913414 14.7227864689194
231 75 5 0 12.0797104427777 0.701599743161351 1.41864391160198
232 75 6 0 13.0397104427777 0.701599743161351 1.41864391160198
233 75 5 0 13.2797104427777 -0.22840025683865 1.41864391160198
234 76 5 0 12.9331128245406 11.3118100135494 0.27231722837314
235 76 6 0 13.8931128245406 11.3118100135494 0.27231722837314
236 76 5 0 14.1331128245406 10.3818100135494 0.27231722837314
237 77 5 0 3.70079240223393 11.4769111542869 6.77104448550381
238 77 6 0 4.66079240223393 11.4769111542869 6.77104448550381
239 77 5 0 4.90079240223393 10.5469111542869 6.77104448550381
240 78 5 0 2.29716429647058 2.38872762577608 10.3412678267341
241 78 6 0 3.25716429647058 2.38872762577608 10.3412678267341
242 78 5 0 3.49716429647058 1.45872762577608 10.3412678267341
243 79 5 0 4.73367420651019 2.57568351383321 10.9984917822294
244 79 6 0 5.69367420651019 2.57568351383321 10.9984917822294
245 79 5 0 5.93367420651019 1.64568351383321 10.9984917822294
246 80 5 0 1.70804031120613 5.53844024468213 7.23600030876696
247 80 6 0 2.66804031120613 5.53844024468213 7.23600030876696
248 80 5 0 2.90804031120613 4.60844024468213 7.23600030876696
249 81 5 0 12.4631676524598 4.57972110755742 13.0203437316231
250 81 6 0 13.4231676524598 4.57972110755742 13.0203437316231
251 81 5 0 13.6631676524598 3.64972110755742 13.0203437316231
252 82 5 0 14.1186730311904 14.6847518735472 8.5668470710516
253 82 6 0 15.0786730311904 14.6847518735472 8.5668470710516
254 82 5 0 15.3186730311904 13.7547518735472 8.5668470710516
255 83 5 0 13.9987519585714 9.76197421242483 14.2789533210453
256 83 6 0 14.9587519585714 9.76197421242483 14.2789533210453
257 83 5 0 15.1987519585714 8.83197421242483 14.2789533210453
258 84 5 0 7.41800610601902 6.68196546886116 10.0073841924313
259 84 6 0 8.37800610601902 6.68196546886116 10.0073841924313
260 84 5 0 8.61800610601902 5.75196546886116 10.0073841924313
261 85 5 0 1.47446707866155 6.33766957250424 3.30352425109595
262 85 6 0 2.43446707866155 6.33766957250424 3.30352425109595
263 85 5 0 2.67446707866155 5.40766957250424 3.30352425109595
264 86 5 0 10.3654695551097 5.50360000849701 1.11696091247723
265 86 6 0 11.3254695551097 5.50360000849701 1.11696091247723
266 86 5 0 11.5654695551097 4.57360000849701 1.11696091247723
267 87 5 0 2.77099119077437 10.0444593005255 6.9173792435322
268 87 6 0 3.73099119077437 10.0444593005255 6.9173792435322
269 87 5 0 3.97099119077437 9.11445930052549 6.9173792435322
270 88 5 0 9.43447832643986 7.3413873689156 5.57059476035647
271 88 6 0 10.3944783264399 7.3413873689156 5.57059476035647
272 88 5 0 10.6344783264399 6.4113873689156 5.57059476035647
273 89 5 0 11.0285218006186 7.23521590040997 0.314174919622019
274 89 6 0 11.9885218006186 7.23521590040997 0.314174919622019
275 89 5 0 12.2285218006186 6.30521590040997 0.314174919622019
276 90 5 0 5.83751855112612 2.44648061500862 14.8446406633593
277 90 6 0 6.79751855112612 2.44648061500862 14.8446406633593
278 90 5 0 7.03751855112612 1.51648061500862 14.8446406633593
279 91 5 0 13.1489009507652 2.16792821459472 3.29244874301367
280 91 6 0 14.1089009507652 2.16792821459472 3.29244874301367
281 91 5 0 14.3489009507652 1.23792821459472 3.29244874301367
282 92 5 0 5.6922796151787 9.73605717224069 4.19740600744262
283 92 6 0 6.6522796151787 9.73605717224069 4.19740600744262
284 92 5 0 6.8922796151787 8.80605717224069 4.19740600744262
285 93 5 0 13.0328162088711 0.474143281290308 7.3919539921917
286 93 6 0 13.9928162088711 0.474143281290308 7.3919539921917
287 93 5 0 14.2328162088711 -0.455856718709692 7.3919539921917
288 94 5 0 2.81794852620922 12.8694034965616 12.5721155432984
289 94 6 0 3.77794852620922 12.8694034965616 12.5721155432984
290 94 5 0 4.01794852620922 11.9394034965616 12.5721155432984
291 95 5 0 13.3990162603743 10.6585052578617 0.0637211208231747
292 95 6 0 14.3590162603743 10.6585052578617 0.0637211208231747
293 95 5 0 14.5990162603743 9.72850525786169 0.0637211208231747
294 96 5 0 4.67730986813083 0.851668192017824 10.2970078086946
295 96 6 0 5.63730986813083 0.851668192017824 10.2970078086946
296 96 5 0 5.87730986813083 -0.0783318079821766 10.2970078086946
297 97 5 0 13.9078565435205 7.49756464659236 7.9260240518488
298 97 6 0 14.8678565435205 7.49756464659236 7.9260240518488
299 97 5 0 15.1078565435205 6.56756464659236 7.9260240518488
300 98 5 0 13.0816643549781 5.2627506204322 8.99100918788463
301 98 6 0 14.0416643549781 5.2627506204322 8.99100918788463
302 98 5 0 14.2816643549781 4.3327506204322 8.99100918788463
303 99 5 0 6.03802827696316 12.3589529729821 3.76401975983754
304 99 6 0 6.99802827696316 12.3589529729821 3.76401975983754
305 99 5 0 7.23802827696316 11.4289529729821 3.76401975983754
306 100 5 0 -0.163878850433975 8.6311142430082 3.51825182558969
307 100 6 0 0.796121149566025 8.6311142430082 3.51825182558969
308 100 5 0 1.03612114956602 7.7011142430082 3.51825182558969
309 101 5 0 13.1122788407095 3.0715323883947 7.57136613945477
310 101 6 0 14.0722788407095 3.0715323883947 7.57136613945477
311 101 5 0 14.3122788407095 2.1415323883947 7.57136613945477
312 102 5 0 12.0294187443517 2.8232335734088 4.46803242433816
313 102 6 0 12.9894187443517 2.8232335734088 4.46803242433816
314 102 5 0 13.2294187443517 1.8932335734088 4.46803242433816
315 103 5 0 2.62002130664885 12.6395576090459 8.97648214478977
316 103 6 0 3.58002130664885 12.6395576090459 8.97648214478977
317 103 5 0 3.82002130664885 11.7095576090459 8.97648214478977
318 104 5 0 13.612873475505 9.54929660348222 12.8210550674703
319 104 6 0 14.572873475505 9.54929660348222 12.8210550674703
320 104 5 0 14.812873475505 8.61929660348222 12.8210550674703
321 105 5 0 11.4504145695548 5.65641803591512 3.66094760480337
322 105 6 0 12.4104145695549 5.65641803591512 3.66094760480337
323 105 5 0 12.6504145695549 4.72641803591512 3.66094760480337
324 106 5 0 0.580323097966611 8.65378977771848 12.3241727915592
325 106 6 0 1.54032309796661 8.65378977771848 12.3241727915592
326 106 5 0 1.78032309796661 7.72378977771848 12.3241727915592
327 107 5 0 8.05736922469921 15.0131097696163 1.29334766068496
328 107 6 0 9.01736922469921 15.0131097696163 1.29334766068496
329 107 5 0 9.25736922469921 14.0831097696163 1.29334766068496
330 108 5 0 9.22913963950239 5.27102534700185 14.8802883282769
331 108 6 0 10.1891396395024 5.27102534700185 14.8802883282769
332 108 5 0 10.4291396395024 4.34102534700185 14.8802883282769
333 109 5 0 8.65003667349927 2.43713253335096 12.8886356425937
334 109 6 0 9.61003667349927 2.43713253335096 12.8886356425937
335 109 5 0 9.85003667349927 1.50713253335096 12.8886356425937
336 110 5 0 5.27145339801908 12.004400330307 9.41264493972994
337 110 6 0 6.23145339801908 12.004400330307 9.41264493972994
338 110 5 0 6.47145339801908 11.074400330307 9.41264493972994
339 111 5 0 12.6100352445804 5.67384898936376 1.4409038820304
340 111 6 0 13.5700352445804 5.67384898936376 1.4409038820304
341 111 5 0 13.8100352445804 4.74384898936376 1.4409038820304
342 112 5 0 4.02723558872938 15.2434010505117 1.85659766080789
343 112 6 0 4.98723558872938 15.2434010505117 1.85659766080789
344 112 5 0 5.22723558872938 14.3134010505117 1.85659766080789
345 113 5 0 11.5637335627992 13.0549264004827 13.7556887988467
346 113 6 0 12.5237335627992 13.0549264004827 13.7556887988467
347 113 5 0 12.7637335627992 12.1249264004827 13.7556887988467
348 114 5 0 10.9412818208523 10.2766775809601 4.19023521593772
349 114 6 0 11.9012818208523 10.2766775809601 4.19023521593772
350 114 5 0 12.1412818208523 9.3466775809601 4.19023521593772
351 115 5 0 5.99712498413399 8.4960619597137 1.78368226974271
352 115 6 0 6.95712498413399 8.4960619597137 1.78368226974271
353 115 5 0 7.19712498413399 7.5660619597137 1.78368226974271
354 116 5 0 6.60332394341938 11.0395092975255 9.62361870682798
355 116 6 0 7.56332394341938 11.0395092975255 9.62361870682798
356 116 5 0 7.80332394341938 10.1095092975255 9.62361870682798
357 117 5 0 2.26651520744897 12.6612767336797 13.9969797071535
358 117 6 0 3.22651520744897 12.6612767336797 13.9969797071535
359 117 5 0 3.46651520744897 11.7312767336797 13.9969797071535
360 118 5 0 3.74448976406828 8.67808269144967 0.56222656625323
361 118 6 0 4.70448976406828 8.67808269144967 0.56222656625323
362 118 5 0 4.94448976406828 7.74808269144967 0.56222656625323
363 119 5 0 9.54388399419375 13.1981925996393 0.337190508143976
364 119 6 0 10.5038839941937 13.1981925996393 0.337190508143976
365 119 5 0 10.7438839941937 12.2681925996393 0.337190508143976
366 120 5 0 3.27332182249054 3.31815751543269 14.9062275036704
367 120 6 0 4.23332182249054 3.31815751543269 14.9062275036704
368 120 5 0 4.47332182249054 2.38815751543269 14.9062275036704
369 121 5 0 -0.0259777608141303 13.7681881738268 14.149918978801
370 121 6 0 0.93402223918587 13.7681881738268 14.149918978801
371 121 5 0 1.17402223918587 12.8381881738268 14.149918978801
372 122 5 0 9.85267868192866 5.85262282326817 7.25148153025657
373 122 6 0 10.8126786819287 5.85262282326817 7.25148153025657
374 122 5 0 11.0526786819287 4.92262282326818 7.25148153025657
375 123 5 0 10.8826120784227 0.535463643437252 0.855857378337532
376 123 6 0 11.8426120784227 0.535463643437252 0.855857378337532
377 123 5 0 12.0826120784227 -0.394536356562749 0.855857378337532
378 124 5 0 1.64996105290018 14.506319039911 9.03321578982286
379 124 6 0 2.60996105290018 14.506319039911 9.03321578982286
380 124 5 0 2.84996105290018 13.576319039911 9.03321578982286
381 125 5 0 9.8320970269572 13.4972272281908 2.67734867054969
382 125 6 0 10.7920970269572 13.4972272281908 2.67734867054969
383 125 5 0 11.0320970269572 12.5672272281908 2.67734867054969
384 126 5 0 4.19955567500554 8.93670811242424 13.6407294427045
385 126 6 0 5.15955567500554 8.93670811242424 13.6407294427045
386 126 5 0 5.39955567500554 8.00670811242424 13.6407294427045
387 127 5 0 3.04788693247363 0.861915739197284 0.285584593657404
388 127 6 0 4.00788693247363 0.861915739197284 0.285584593657404
389 127 5 0 4.24788693247363 -0.0680842608027161 0.285584593657404
390 128 5 0 0.199992795679718 8.31445851753466 2.17203541542403
391 128 6 0 1.15999279567972 8.31445851753466 2.17203541542403
392 128 5 0 1.39999279567972 7.38445851753466 2.17203541542403
393 129 5 0 10.5379521734733 10.9181283313688 14.5435542776249
394 129 6 0 11.4979521734733 10.9181283313688 14.5435542776249
395 129 5 0 11.7379521734733 9.98812833136879 14.5435542776249
396 130 5 0 13.6568038996495 7.3721903531719 3.12165395356715
397 130 6 0 14.6168038996495 7.3721903531719 3.12165395356715
398 130 5 0 14.8568038996495 6.4421903531719 3.12165395356715
399 131 5 0 1.5898201781977 11.457493358003 6.45897381473333
400 131 6 0 2.5498201781977 11.457493358003 6.45897381473333
401 131 5 0 2.7898201781977 10.527493358003 6.45897381473333
402 132 5 0 3.20942120321095 11.1085382410698 6.37256380054168
403 132 6 0 4.16942120321095 11.1085382410698 6.37256380054168
404 132 5 0 4.40942120321095 10.1785382410698 6.37256380054168
405 133 5 0 1.94557101043873 11.8858103283588 14.2656413884833
406 133 6 0 2.90557101043873 11.8858103283588 14.2656413884833
407 133 5 0 3.14557101043873 10.9558103283588 14.2656413884833
408 134 5 0 2.29897583529353 10.3051025878545 3.84006180684082
409 134 6 0 3.25897583529353 10.3051025878545 3.84006180684082
410 134 5 0 3.49897583529353 9.37510258785449 3.84006180684082
411 135 5 0 0.593242013566196 6.40535102033988 9.46246555075049
412 135 6 0 1.5532420135662 6.40535102033988 9.46246555075049
413 135 5 0 1.7932420135662 5.47535102033988 9.46246555075049
414 136 5 0 7.62518893738277 2.68106763524935 14.6399352012668
415 136 6 0 8.58518893738277 2.68106763524935 14.6399352012668
416 136 5 0 8.82518893738277 1.75106763524935 14.6399352012668
417 137 5 0 0.31561571217142 7.26624512969516 6.546986567555
418 137 6 0 1.27561571217142 7.26624512969516 6.546986567555
419 137 5 0 1.51561571217142 6.33624512969516 6.546986567555
420 138 5 0 6.76959215939976 13.7137602052558 4.54510408686474
421 138 6 0 7.72959215939976 13.7137602052558 4.54510408686474
422 138 5 0 7.96959215939976 12.7837602052558 4.54510408686474
423 139 5 0 4.28002297223546 2.67657826695591 1.85222202097066
424 139 6 0 5.24002297223546 2.67657826695591 1.85222202097066
425 139 5 0 5.48002297223546 1.74657826695591 1.85222202097066
426 140 5 0 6.6047173789423 5.84420523414388 4.19445859501138
427 140 6 0 7.5647173789423 5.84420523414388 4.19445859501138
428 140 5 0 7.8047173789423 4.91420523414388 4.19445859501138
429 141 5 0 12.0656712439097 7.47650393093005 14.2682184220757
430 141 6 0 13.0256712439097 7.47650393093005 14.2682184220757
431 141 5 0 13.2656712439097 6.54650393093005 14.2682184220757
432 142 5 0 9.01870172398165 12.1150792545546 6.62845134618692
433 142 6 0 9.97870172398165 12.1150792545546 6.62845134618692
434 142 5 0 10.2187017239816 11.1850792545546 6.62845134618692
435 143 5 0 -0.0849532401468605 5.90961347142234 3.26623665634543
436 143 6 0 0.87504675985314 5.90961347142234 3.26623665634543
437 143 5 0 1.11504675985314 4.97961347142234 3.26623665634543
438 144 5 0 12.4030388511904 2.98937957425602 1.85558076482266
439 144 6 0 13.3630388511904 2.98937957425602 1.85558076482266
440 144 5 0 13.6030388511904 2.05937957425602 1.85558076482266
441 145 5 0 5.85908509019762 13.3862735102326 9.20593533664942
442 145 6 0 6.81908509019762 13.3862735102326 9.20593533664942
443 145 5 0 7.05908509019762 12.4562735102326 9.20593533664942
444 146 5 0 3.99472321660258 0.604559610774741 0.299224716145545
445 146 6 0 4.95472321660258 0.604559610774741 0.299224716145545
446 146 5 0 5.19472321660258 -0.325440389225259 0.299224716145545
447 147 5 0 12.351960353991 5.8200860807579 9.16069162194617
448 147 6 0 13.311960353991 5.8200860807579 9.16069162194617
449 147 5 0 13.551960353991 4.8900860807579 9.16069162194617
450 148 5 0 7.82699498740956 3.47151958424598 12.7906773705035
451 148 6 0 8.78699498740956 3.47151958424598 12.7906773705035
452 148 5 0 9.02699498740956 2.54151958424598 12.7906773705035
453 149 5 0 7.2150725049153 3.49587003974244 7.74911944521591
454 149 6 0 8.1750725049153 3.49587003974244 7.74911944521591
455 149 5 0 8.4150725049153 2.56587003974244 7.74911944521591
456 150 5 0 10.6175395350158 10.5849518223573 11.2594236584846
457 150 6 0 11.5775395350158 10.5849518223573 11.2594236584846
458 150 5 0 11.8175395350158 9.65495182235725 11.2594236584846
459 151 5 0 2.31026109351777 2.52658847178333 12.5053442583885
460 151 6 0 3.27026109351777 2.52658847178333 12.5053442583885
461 151 5 0 3.51026109351777 1.59658847178332 12.5053442583885
462 152 5 0 13.648214327842 12.9644812263455 3.59676817548461
463 152 6 0 14.608214327842 12.9644812263455 3.59676817548461
464 152 5 0 14.848214327842 12.0344812263455 3.59676817548461
465 153 5 0 7.06631207998842 11.204675188465 6.60019520670176
466 153 6 0 8.02631207998842 11.204675188465 6.60019520670176
467 153 5 0 8.26631207998842 10.274675188465 6.60019520670176
468 154 5 0 9.98190079975873 3.04168818559498 14.5213762123603
469 154 6 0 10.9419007997587 3.04168818559498 14.5213762123603
470 154 5 0 11.1819007997587 2.11168818559498 14.5213762123603
471 155 5 0 12.6024802999757 2.51614706515335 7.93476034188643
472 155 6 0 13.5624802999757 2.51614706515335 7.93476034188643
473 155 5 0 13.8024802999757 1.58614706515335 7.93476034188643
474 156 5 0 9.69886750026606 6.1826270578336 10.4840970458463
475 156 6 0 10.6588675002661 6.1826270578336 10.4840970458463