LAMMPS (29 Sep 2021 - Update 1)
# Test LAMMPS input file for single DeFDe

# Initialize simulation

clear

units real
atom_style full
boundary p p p
dielectric 1
special_bonds dreiding

bond_style harmonic
angle_style harmonic
dihedral_style harmonic
improper_style umbrella
pair_style hybrid/overlay hbond/dreiding/lj 4 9.0 11.0 90 lj/cut 8.50000

# Read data file
read_data frag5.dat
Reading data file ...
  triclinic box = (0.0000000 0.0000000 0.0000000) to (15.000000 15.000000 15.000000) with tilt (0.0000000 0.0000000 0.0000000)
  2 by 4 by 4 MPI processor grid
  reading atoms ...
  1511 atoms
  scanning bonds ...
  2 = max bonds/atom
  scanning angles ...
  3 = max angles/atom
  scanning dihedrals ...
  4 = max dihedrals/atom
  scanning impropers ...
  2 = max impropers/atom
  reading bonds ...
  1011 bonds
  reading angles ...
  516 angles
  reading dihedrals ...
  20 dihedrals
  reading impropers ...
  5 impropers
Finding 1-2 1-3 1-4 neighbors ...
  special bond factors lj:    0        0        1       
  special bond factors coul:  0        0        1       
     3 = max # of 1-2 neighbors
     4 = max # of 1-3 neighbors
     7 = max # of special neighbors
  special bonds CPU = 0.002 seconds
  read_data CPU = 0.017 seconds

# Dreiding potential information

bond_coeff 1 525 1.39
bond_coeff 2 350 1.36
bond_coeff 3 700 1.275
bond_coeff 4 350 1.02
bond_coeff 5 350 0.99
bond_coeff 6 350 0.98

angle_coeff 1 50 120
angle_coeff 2 50 120
angle_coeff 3 50 120
angle_coeff 4 50 104.51

dihedral_coeff 1 3.125 -1 2
dihedral_coeff 2 0.625 -1 2
dihedral_coeff 3 11.25 -1 2

improper_coeff 1 40 0

pair_coeff 1 1 lj/cut 0.0951 3.8983
pair_coeff 1 2 lj/cut 0.0951 3.8983
pair_coeff 1 3 lj/cut 0.0857947550844456 3.77835472527395
pair_coeff 1 4 lj/cut 0.0380199947396104 3.52917391183829
pair_coeff 1 5 lj/cut 0.00308382878902186 3.52806914614779
pair_coeff 1 6 lj/cut 0.0953995283007206 3.64309650983885
pair_coeff 2 2 lj/cut 0.0951 3.8983
pair_coeff 2 3 lj/cut 0.0857947550844456 3.77835472527395
pair_coeff 2 4 lj/cut 0.0380199947396104 3.52917391183829
pair_coeff 2 5 lj/cut 0.00308382878902186 3.52806914614779
pair_coeff 2 6 lj/cut 0.0953995283007206 3.64309650983885
pair_coeff 3 3 lj/cut 0.0774 3.6621
pair_coeff 3 4 lj/cut 0.0342998542270955 3.42058613398347
pair_coeff 3 5 lj/cut 0.00278208554864871 3.41951536039831
pair_coeff 3 6 lj/cut 0.0860649754545948 3.53100349192691
pair_coeff 4 4 lj/cut 0.0152 3.195
pair_coeff 4 5 lj/cut 0.0012328828005938 3.19399984345648
pair_coeff 4 6 lj/cut 0.0381397430510485 3.29813538230316
pair_coeff 5 5 lj/cut 1e-04 3.193
pair_coeff 5 6 lj/cut 0.0030935416596516 3.29710294046152
pair_coeff 6 6 lj/cut 0.0957 3.4046
pair_coeff 3 3 hbond/dreiding/lj 5 j 9.50 2.75 4 9.0 11.0 90
pair_coeff 3 6 hbond/dreiding/lj 5 i 9.50 2.75 4 9.0 11.0 90
pair_coeff 3 6 hbond/dreiding/lj 5 j 9.50 2.75 4 9.0 11.0 90
pair_coeff 6 6 hbond/dreiding/lj 5 j 9.50 2.75 4 9.0 11.0 90

neighbor 2 bin
neigh_modify every 2 one 10000

# Gemoetric relaxation
fix 1 all box/relax iso 1.0 vmax 0.001
minimize 1.0e-4 1.0e-6 10000 10000
WARNING: Using 'neigh_modify every 1 delay 0 check yes' setting during minimization (../min.cpp:188)
Neighbor list info ...
  update every 1 steps, delay 0 steps, check yes
  max neighbors/atom: 10000, page size: 100000
  master list distance cutoff = 13
  ghost atom cutoff = 13
  binsize = 6.5, bins = 3 3 3
  3 neighbor lists, perpetual/occasional/extra = 3 0 0
  (1) pair hbond/dreiding/lj, perpetual, skip from (3)
      attributes: full, newton on
      pair build: skip
      stencil: none
      bin: none
  (2) pair lj/cut, perpetual, half/full from (3)
      attributes: half, newton on
      pair build: halffull/newton
      stencil: none
      bin: none
  (3) neighbor class addition, perpetual
      attributes: full, newton on
      pair build: full/bin
      stencil: full/bin/3d
      bin: standard
Per MPI rank memory allocation (min/avg/max) = 12.04 | 12.36 | 12.96 Mbytes
Step Temp E_pair E_mol TotEng Press Volume 
       0            0 6.509147e+19    204.53884 6.509147e+19 5.289741e+21         3375 
    5312            0   -969.32559    32.328496    -936.9971    129.07793    39194.267 
Loop time of 4.8479 on 32 procs for 5312 steps with 1511 atoms

99.9% CPU use with 32 MPI tasks x no OpenMP threads

Minimization stats:
  Stopping criterion = energy tolerance
  Energy initial, next-to-last, final = 
    6.50914701621488e+19  -936.384464926821  -936.474708163252
  Force two-norm initial, final = 1.9772964e+22 120.78988
  Force max component initial, final = 9.7978277e+21 96.986451
  Final line search alpha, max atom move = 2.0931625e-05 0.0020300840
  Iterations, force evaluations = 5312 5317

MPI task timing breakdown:
Section |  min time  |  avg time  |  max time  |%varavg| %total
---------------------------------------------------------------
Pair    | 1.1516     | 2.4911     | 4.1071     |  39.0 | 51.39
Bond    | 0.0058789  | 0.011082   | 0.023007   |   2.8 |  0.23
Neigh   | 0.098719   | 0.09906    | 0.099352   |   0.1 |  2.04
Comm    | 0.25934    | 1.8792     | 3.2231     |  45.1 | 38.76
Output  | 0          | 0          | 0          |   0.0 |  0.00
Modify  | 0          | 0          | 0          |   0.0 |  0.00
Other   |            | 0.3674     |            |       |  7.58

Nlocal:        47.2188 ave          71 max          24 min
Histogram: 1 1 4 5 7 5 3 3 1 2
Nghost:        1867.78 ave        1903 max        1830 min
Histogram: 4 2 5 1 2 4 2 4 5 3
Neighs:        4638.25 ave        7513 max        2217 min
Histogram: 2 1 4 6 7 4 4 1 1 2

Total # of neighbors = 148424
Ave neighs/atom = 98.228987
Ave special neighs/atom = 2.0211780
Neighbor list builds = 97
Dangerous builds = 0

# MD simulation
velocity all create 300.0 12345 rot yes dist gaussian
timestep 1.0
fix 2 all nvt temp 300.0 300.0 1

# Compute interaction energy
group WAT molecule <> 2 501
1500 atoms in group WAT
group MOL molecule 1
11 atoms in group MOL

compute w WAT group/group MOL pair yes
fix 3 all ave/time 10 5 100 c_w file outa

# Outputs
thermo 100 # Output thermodynamic data every nth step
#dump mf1 all xyz 10000 mol_*.xyz

# Run
run 1000000
Neighbor list info ...
  update every 2 steps, delay 10 steps, check yes
  max neighbors/atom: 10000, page size: 100000
  master list distance cutoff = 13
  ghost atom cutoff = 13
  binsize = 6.5, bins = 6 6 6
  4 neighbor lists, perpetual/occasional/extra = 3 1 0
  (1) pair hbond/dreiding/lj, perpetual, skip from (4)
      attributes: full, newton on
      pair build: skip
      stencil: none
      bin: none
  (2) pair lj/cut, perpetual, half/full from (4)
      attributes: half, newton on
      pair build: halffull/newton
      stencil: none
      bin: none
  (3) compute group/group, occasional, copy from (2)
      attributes: half, newton on
      pair build: copy
      stencil: none
      bin: none
  (4) neighbor class addition, perpetual
      attributes: full, newton on
      pair build: full/bin
      stencil: full/bin/3d
      bin: standard
Per MPI rank memory allocation (min/avg/max) = 10.88 | 10.94 | 11.54 Mbytes
Step Temp E_pair E_mol TotEng Press Volume 
    5312          300   -969.32559    32.328496    413.30986     1703.941    39194.267 
    5400    304.19431   -1042.6622    267.35161      593.875    948.40479    39194.267 
    5500    292.61842   -1012.3229    170.97181    475.73125    561.39891    39194.267 
    5600    303.33131   -1023.6632    179.71319    521.35126    250.11963    39194.267 
    5700    294.52145   -1020.6729    218.35123    523.32621   -214.18315    39194.267 
    5800    305.19852   -1031.5922    191.65137    533.76473   -53.189172    39194.267 
    5900    307.39078   -1009.9064    193.50614     567.1728    527.27823    39194.267 
    6000    301.65478   -1047.8527    199.70804    509.61049     316.5596    39194.267 
    6100    300.59066   -1040.5384    197.75937    510.18654    451.47238    39194.267 
    6200    299.51171   -1047.4825    193.12212    493.74878   -153.05089    39194.267 
    6300    297.21507   -1065.3874    191.84449    464.22901    116.04763    39194.267 
    6400    307.92721   -1068.8796    194.95465    512.06255   -22.323562    39194.267 
    6500    298.63181   -1019.3942    204.10658    528.86112    392.99746    39194.267 
    6600    290.63395   -1004.2267    207.12127    511.04467    155.87671    39194.267 
    6700    297.41621   -1016.7981    202.77508    524.65429   -45.789562    39194.267 
    6800    312.92873   -1038.9476    213.67371    583.22558    704.88704    39194.267 
    6900    296.56521   -1026.7002    204.81749    512.96414     142.0751    39194.267 
    7000    301.93055   -1046.6193    201.26458    513.64166    698.39177    39194.267 
    7100    300.21968    -1055.841    214.37289    509.82762    511.24145    39194.267 
    7200    297.36074   -1027.9638    219.47797    529.94174    611.00998    39194.267 
    7300     314.0471    -1042.367    224.22484    595.39113     862.7888    39194.267 
    7400     301.8774   -1040.7288    218.79334    536.82174    844.36057    39194.267 
    7500    293.92848   -1031.0076    218.90024     510.8715    182.39831    39194.267 
    7600    306.49817   -1044.8945     216.0822    550.74308    417.71037    39194.267 
    7700    307.45372   -1077.5727    223.09193    529.37561    378.62023    39194.267 
    7800    304.87148   -1080.3267    220.28971    512.19663    234.99265    39194.267 
    7900     298.3992   -1042.0976    218.99466    519.99874   -338.80326    39194.267 
    8000    301.67269    -1062.808     223.3388    518.36656     6.901229    39194.267 
    8100    292.54893   -1053.8582     224.8998    487.81115    -511.5724    39194.267 
    8200    306.84038   -1077.3392    227.89119     531.6477    385.45073    39194.267 
    8300    296.37661   -1102.7976    225.20353    456.40391     125.3424    39194.267 
    8400    292.38074     -1073.73    226.84321    469.12568    307.26781    39194.267 
    8500    300.84251   -1087.4885    220.89562    487.50626    291.11582    39194.267 
    8600    305.16498   -1091.5083    229.85182    511.89817    486.21324    39194.267 
    8700      300.535   -1102.2607    225.42574    475.88003    531.22875    39194.267 
    8800    309.96233   -1065.3013    230.08789    559.93427    249.66254    39194.267 
    8900    311.53915   -1089.3649     244.9807    557.86077    254.34724    39194.267 
    9000    294.99674   -1079.0358    242.26548    491.01688    323.53051    39194.267 
    9100    304.29279   -1118.3613    220.58697    471.85461    743.26455    39194.267 
    9200    308.02079   -1090.9509    243.49733    538.95516    436.24808    39194.267 
    9300    297.46324   -1096.2623    228.03105    470.65763    10.427116    39194.267 
    9400    306.26251   -1085.5063    237.49381    530.48214    462.21235    39194.267 
    9500    295.03096   -1071.3715     239.6581     496.2278    213.85228    39194.267 
    9600    297.19606   -1069.0876    234.84468    503.44348    240.78109    39194.267 
    9700    302.91448   -1063.7151    256.45541    556.16547    267.60265    39194.267 
    9800    301.33166   -1067.5443    233.37631    522.13281   -29.237423    39194.267 
    9900    303.42166   -1066.3663    244.52341    543.86502    388.02412    39194.267 
   10000    292.22887    -1099.886    247.51374    462.95672    146.06149    39194.267 
   10100    295.73473   -1087.3848    244.38621    488.11028    92.521378    39194.267 
   10200     299.0153   -1073.6616    237.68162    509.89484     101.0164    39194.267 
   10300    303.27149   -1090.2274    248.83892    523.64357   -337.50661    39194.267 
   10400    304.26522   -1047.1165     246.1901    568.57841   -86.532298    39194.267 
   10500    279.09815   -1055.5286    241.06073     441.7593   -296.15205    39194.267 
   10600    314.26259   -1094.3003    242.38149    562.58444    7.9129307    39194.267 
   10700    300.45493   -1084.0631    261.15292    529.44441    -186.0097    39194.267 
   10800    289.45203   -1092.1153    255.70268    466.41767    321.50762    39194.267 
   10900    297.84968   -1119.9759    264.31545    484.96787    100.14079    39194.267 
   11000    296.83903   -1082.7425     247.7387    501.07552   -113.45601    39194.267 
   11100    308.50184   -1077.6373     251.3927    562.32931   -77.130483    39194.267 
   11200    303.50707   -1090.0062    269.21166    545.29776   -130.66791    39194.267 
   11300    296.24212   -1054.6256     269.0573    547.82432    21.773896    39194.267 
   11400    289.78062   -1027.7327    269.73539    546.31196    129.98498    39194.267 
   11500    283.66421   -1089.1509    248.75475    436.38302   -10.186559    39194.267 
   11600    306.90445    -1081.579    260.10759    559.91261   -79.172827    39194.267 
   11700     289.3743   -1071.5516    271.06564    501.99442    -27.25462    39194.267 
   11800    296.42773   -1122.5212    268.81164    480.51854    150.22369    39194.267 
   11900    290.98791   -1091.7536     257.3209    475.31065   -4.1878751    39194.267 
   12000    315.22862   -1083.8885    276.82548    611.78836    688.77725    39194.267 
   12100    297.55203   -1096.3031      269.767    512.75247     520.6403    39194.267 
   12200    296.32496   -1093.0862    268.51497    509.19429    776.90921    39194.267 
   12300    301.97885   -1085.4434    271.46684    545.23718    543.43117    39194.267 
   12400     300.7371   -1050.5291    302.20854    605.30412    1048.5305    39194.267 
   12500    302.20276    -1100.003    269.80707    530.02568    624.23019    39194.267 
   12600    291.95914   -1114.0894    278.11652    478.14203    781.40556    39194.267 
   12700    295.81875   -1097.8126     268.0414    501.71584    266.91512    39194.267 
   12800    292.68008    -1058.597    274.44549    533.20833    407.56586    39194.267 
   12900    305.40485   -1121.4712    275.66208    528.82518    473.41921    39194.267 
   13000    303.36807   -1130.5567    264.27856    499.18862    223.28384    39194.267 
   13100    303.82894   -1111.5806    277.11031    533.07076     550.0164    39194.267 
   13200    297.94623   -1135.6832    284.09346    489.47312    180.27713    39194.267 
   13300    303.05699   -1101.0712      285.001    547.99638    322.20388    39194.267 
   13400    292.00572   -1136.6005    290.03252     467.7565     474.8479    39194.267 
   13500    294.19242   -1166.5557    275.63058    433.24179    401.27413    39194.267 
   13600     297.1641    -1131.528    277.96046    483.97498    567.67933    39194.267 
   13700    295.26219   -1152.3727    275.16655    451.77581    506.25388    39194.267 
   13800    300.24666   -1165.3313    273.22538    459.31123   -65.320042    39194.267 
   13900    305.99187   -1153.7392    277.58478    501.12203    665.41088    39194.267 
   14000    304.82417   -1155.3623    271.92867    488.58699    370.49764    39194.267 
   14100    293.33586   -1123.0119    284.22005    481.51961    168.97154    39194.267 
   14200      292.609   -1095.6852    282.74006     504.0948    352.63579    39194.267 
   14300    296.59274    -1108.112    271.99416    498.85292    107.09625    39194.267 
   14400    292.97612   -1095.6584    293.64937    516.68334    268.10082    39194.267 
   14500    301.95517    -1114.376     263.8036    508.53478    404.95626    39194.267 
   14600    300.73614   -1063.7411    278.93015    568.80941    326.15409    39194.267 
   14700    291.25765   -1076.2372    288.44235    523.16255    219.59896    39194.267 
   14800    304.33128   -1057.3741    286.49659    598.92467    119.50788    39194.267 
   14900    298.05951   -1109.3441     273.2437    505.47239    486.22862    39194.267 
   15000    284.78057   -1132.7011    302.44252    451.54538    66.088305    39194.267 
   15100    290.44121   -1095.4757    288.92138    500.72829    290.89429    39194.267 
   15200    301.75256   -1061.9344    298.41619    594.67708    65.845619    39194.267 
   15300    300.33435   -1120.7793    287.86216    518.89473   -169.53861    39194.267 
   15400    308.05498    -1096.837    296.85862    586.58426     404.1801    39194.267 
   15500     298.0328   -1116.5375     296.6214    521.53647    204.67232    39194.267 
   15600    305.36299   -1117.9268    293.02848    549.54756    402.52556    39194.267 
   15700    314.98864   -1068.0142    293.27739    643.03434    777.09973    39194.267 
   15800    300.62902   -1100.1689    293.23751    546.20681    360.10377    39194.267 
   15900    298.03483   -1074.6275    305.24834    572.08248     374.5549    39194.267 
   16000    298.12054    -1120.985     290.1415    511.00393    54.446962    39194.267 
   16100    305.10375   -1101.2621    288.03483    560.05181    276.28621    39194.267 
   16200    309.56378   -1114.1356    303.46009    582.67825    19.894269    39194.267 
   16300     305.0795   -1149.5226    303.38351    527.03081    351.30923    39194.267 
   16400    300.29254   -1104.9622    285.64257    532.30406    488.43432    39194.267 
   16500    289.84455    -1117.068    300.15597    487.68503    104.17273    39194.267 
   16600     301.0363   -1088.1126    290.23197    557.09069   -237.50555    39194.267 
   16700    302.47834   -1119.9435    295.52563    537.04409     76.49573    39194.267 
   16800    308.40925   -1102.9095    302.87782    588.12547    317.18628    39194.267 
   16900    297.14955   -1144.7158    295.00698     487.7682    466.65192    39194.267 
   17000    302.46578   -1126.2294    308.82133    543.99746    518.33045    39194.267 
   17100    302.97215   -1132.3099    294.67326    526.04808   -267.25584    39194.267 
   17200    306.51946   -1107.9035    292.26019    564.00793   -189.32245    39194.267 
   17300    301.40934   -1114.9963    307.04036    548.69449    90.747743    39194.267 
   17400    297.98382   -1151.4222    296.00222    485.81208    301.10495    39194.267 
   17500    302.71874   -1130.5441    330.16064    562.16064    70.331233    39194.267 
   17600     300.2081   -1139.4107    304.07194    515.90481    508.35414    39194.267 
   17700    298.97395   -1139.3275    306.51862    512.87981   -66.488786    39194.267 
   17800    297.79014   -1153.0503    309.11943    496.42943    245.18326    39194.267 
   17900    294.20149   -1147.2066    293.61148    470.61264    420.78114    39194.267 
   18000    297.78385   -1128.2565    314.94458    527.02009    198.36555    39194.267 
   18100    308.75681   -1149.6661    306.41485     546.4703    686.98035    39194.267 
   18200    303.76788   -1146.5611    294.72379    515.42903    153.79382    39194.267 
   18300    296.20378   -1160.3155    314.39944      487.304     417.9026    39194.267 
   18400    310.71956   -1107.3659    328.47106    619.66108    641.97355    39194.267 
   18500    295.17098   -1112.0663    313.66981    530.17491    669.21047    39194.267 
   18600    294.34226   -1095.8069    317.59346    546.62787    252.32545    39194.267 
   18700    293.76733   -1149.1625    321.04793      494.139   -132.97125    39194.267 
   18800    305.36832   -1128.0545    309.34918    555.76453   -368.05862    39194.267 
   18900    313.14421   -1113.1975    310.87975    607.15158   -64.245758    39194.267 
   19000    312.28906   -1133.3365    312.18409    584.46794   -212.52716    39194.267 
   19100    307.51284   -1138.8247    331.00119    576.29895    252.55271    39194.267 
   19200    287.46854   -1125.5113    314.55007    482.94132     147.2647    39194.267 
   19300    313.20827   -1189.5045    308.51124     528.7644    41.678237    39194.267 
   19400    293.47641   -1150.4624    319.89986    490.38159    321.69228    39194.267 
   19500    308.17492    -1150.429    320.95438     557.6279    351.45331    39194.267 
   19600    293.76085   -1165.5225    314.21546    470.91734    186.78712    39194.267 
   19700    300.06925   -1146.3999    313.77453    517.99325    284.68852    39194.267 
   19800    295.56528   -1100.5667    306.41453    536.19397    202.96699    39194.267 
   19900    294.69488   -1108.8794    328.33388    545.88293   -190.88068    39194.267 
   20000    301.89028   -1148.0614     322.3804    533.13413     376.7097    39194.267 
   20100    297.92053   -1182.4939    305.19069    463.64399    426.94198    39194.267 
   20200    305.61463   -1152.2513    322.14476    545.47201    99.680661    39194.267 
   20300    309.28803    -1120.584    319.16504    590.69357   -21.677833    39194.267 
   20400    298.72145   -1140.8547    318.97693    522.67439    221.52308    39194.267 
   20500    304.25218    -1136.136    326.45799    559.76806    326.45338    39194.267 
   20600    305.52364   -1149.4318    327.73993    553.47711    594.76005    39194.267 
   20700    315.69112   -1140.1876    332.09408    612.83951    360.94525    39194.267 
   20800    301.31159   -1160.8109     328.4307    523.83019    612.77547    39194.267 
   20900    299.46425   -1127.7827    322.19477    542.30756    459.97868    39194.267 
   21000    299.65092   -1138.8844    322.74294    532.59426    664.58517    39194.267 
   21100    297.72331   -1158.5899    320.22044    501.69005    357.41694    39194.267 
   21200    309.10237   -1150.2917    336.02432    577.00961    170.17444    39194.267 
   21300     305.2318   -1136.1173    325.50823    563.24629    320.00462    39194.267 
   21400    301.32884   -1162.4146    328.80714    522.68068    178.98304    39194.267 
   21500    298.46139   -1155.1806    323.94873    512.14977    426.83551    39194.267 
   21600    302.28537   -1170.1748    329.92852    520.34716    300.42972    39194.267 
   21700    307.70325   -1180.7507    335.85061     540.0794    492.03841    39194.267 
   21800    300.19687    -1174.367    324.28582    501.11193    666.92328    39194.267 
   21900    308.73321   -1218.4893    340.67313    511.79916    609.58828    39194.267 
   22000     298.0971   -1207.3439       327.97     462.3681     246.1929    39194.267 
   22100    299.59481   -1186.7409    320.36582     482.1081    269.94155    39194.267 
   22200    304.54065   -1199.1735    324.42149    495.99247    -199.3356    39194.267 
   22300      297.938   -1223.1116    324.50113    442.41535   -37.267476    39194.267 
   22400    300.46286   -1228.2482    302.04966    426.19177    34.165352    39194.267 
   22500     305.4458   -1209.2408    324.71996    490.29778     235.0923    39194.267 
   22600    298.81447   -1219.7946     324.9671    450.14338   -154.90153    39194.267 
   22700    290.45285   -1186.5555     323.7891    444.56861    40.671155    39194.267 
   22800    307.81778   -1197.5925    325.00365    512.90612   -209.89347    39194.267 
   22900     291.4688   -1212.4444    327.69068    427.15409    118.87774    39194.267 
   23000    285.34036   -1216.5569    315.67598    383.44269    248.38534    39194.267 
   23100    298.77888   -1163.8097    317.70592    498.70686    442.16404    39194.267 
   23200    297.03028   -1201.3716     346.4222    481.99078   -89.809938    39194.267 
   23300    285.13192   -1143.4352    347.48565    487.43581    296.63003    39194.267 
   23400     300.7596   -1156.7878    313.57474    510.51286    640.94986    39194.267 
   23500    298.84161   -1163.2528    334.48702    516.32723    268.65001    39194.267 
   23600    300.14299   -1166.9957     353.4272    537.38201    163.84394    39194.267 
   23700    304.62309   -1160.1297    344.07428    555.06017    366.06824    39194.267 
   23800     294.7934   -1192.7883    333.90612    467.98979    219.17302    39194.267 
   23900    296.26724   -1164.1258    332.40419    501.78414    284.68201    39194.267 
   24000    305.64536   -1178.8991    349.12367    545.94143    135.81609    39194.267 
   24100    310.64689   -1173.9028    335.97637    560.30242   -26.608083    39194.267 
   24200    298.57297   -1189.3514    337.54186    492.07433    -251.0958    39194.267 
   24300    303.62474   -1180.9709    332.40882    518.05996   -157.04659    39194.267 
   24400    304.44909   -1152.4156    332.22303    550.13982     23.06343    39194.267 
   24500    295.68279   -1170.9655    351.68602    511.59559   -29.757982    39194.267 
   24600    301.15012   -1177.8639    333.13226    510.75205   -148.87729    39194.267 
   24700    306.36836   -1173.6627     340.7487    546.05706   -49.762832    39194.267 
   24800    284.68543   -1121.4414    337.21059    497.14491     587.6723    39194.267 
   24900    311.94594   -1158.0453    342.42107    588.45168    355.58064    39194.267 
   25000    299.41855   -1138.3027    332.01001    541.39714   -145.97243    39194.267 
   25100    307.53756   -1175.3963    336.76209    545.59951    171.01066    39194.267 
   25200     302.2942   -1189.4124    332.32239    503.54317   -279.08596    39194.267 
   25300    291.10186   -1214.2048    316.96547    413.01685    95.147881    39194.267 
   25400    309.82894   -1222.0168    350.87383    523.40421   -51.087064    39194.267 
   25500    302.22949   -1203.8143     336.9718    493.49948     287.0418    39194.267 
   25600    299.93789   -1213.6381    333.51766    469.90701    230.16865    39194.267 
   25700    297.22769   -1168.2801    349.44128     518.9899    -140.8375    39194.267 
   25800    301.00495   -1173.3195    323.61666    505.12742    461.31921    39194.267 
   25900    298.03453    -1175.243    339.65438    505.87177    278.51494    39194.267 
   26000    302.48356   -1144.7467    363.91825    580.65705     235.2444    39194.267 
   26100    311.26032   -1229.2311    358.49534    530.25412    152.38777    39194.267 
   26200    313.85529    -1190.933    352.92526    574.66222    171.41067    39194.267 
   26300     298.8161   -1151.4184    352.42473    545.98451     640.9461    39194.267 
   26400    291.99239   -1180.5315    351.17617    484.90915   -89.267156    39194.267 
   26500    303.20962   -1177.4206    343.59144    530.92432   -20.049707    39194.267 
   26600    291.55794   -1183.6588    320.38709     449.0373   -162.93603    39194.267 
   26700    300.49134   -1195.3774    347.94169    505.08281     144.1599    39194.267 
   26800    285.60149   -1231.6873    339.01686    392.82851    10.110531    39194.267 
   26900    291.60733   -1224.4259     328.4603    416.56579     -166.548    39194.267 
   27000    302.25965   -1232.4809    341.97398    469.97077    405.57363    39194.267 
   27100    300.55495   -1232.3959    333.46029    453.86921   -197.97083    39194.267 
   27200    302.39842   -1241.8123    342.46967    461.75965    198.29427    39194.267 
   27300    301.02327    -1258.934    362.93651    458.91523   -354.27812    39194.267 
   27400     312.6264   -1206.6715    347.81885    548.28597    -115.3108    39194.267 
   27500    300.60742   -1239.2231    336.57808    450.39595   -115.90461    39194.267 
   27600    308.65937   -1253.3346    348.62285    484.57119   -174.18876    39194.267 
   27700    296.90667   -1214.1111    337.97303    460.24574   -330.49059    39194.267 
   27800    294.68173   -1220.8295    340.60823    446.14805    -140.6303    39194.267 
   27900    298.26472   -1266.9537    338.09075    413.63345   0.27377972    39194.267 
   28000    311.23169    -1253.404    338.87674    486.33383    38.989982    39194.267 
   28100    298.85743   -1225.2089    311.84001    431.79527    297.85041    39194.267 
   28200    302.93967   -1247.1445    349.11055    465.50454    109.30222    39194.267 
   28300    303.10175   -1207.8737    366.46451    522.85883    37.637171    39194.267 
   28400    303.48509   -1223.2232    342.75988    485.53013    24.018002    39194.267 
   28500    304.48113   -1206.8687    337.64269    501.25062    118.89422    39194.267 
   28600    292.39494   -1240.8264    336.99273    412.24277    119.53382    39194.267 
   28700    293.69489   -1183.7703    342.72376    480.88097    116.21518    39194.267 
   28800    288.32819   -1198.6696    368.59826    467.70053   -186.58917    39194.267 
   28900    296.67569   -1203.5155    348.57401    480.40264    287.63348    39194.267 
   29000    293.33307   -1209.6505    360.65941    471.30788    28.156214    39194.267 
   29100    302.29687   -1203.1388    380.15268    537.65914   -13.109957    39194.267 
   29200    304.58004   -1217.2727    346.82871    500.47778    470.89822    39194.267 
   29300    313.62609   -1249.9856    375.36791     537.0206    313.82448    39194.267 
   29400    309.80683   -1259.4713    340.67737    475.65381    67.949275    39194.267 
   29500    306.13548   -1290.6888    353.68219    440.91626    920.19028    39194.267 
   29600    294.36033   -1235.0198    349.99318    439.89601    56.742494    39194.267 
   29700     294.2087   -1282.9088    376.17547    417.50682    470.54429    39194.267 
   29800    296.41464    -1282.642    362.56555    414.09276    409.66264    39194.267 
   29900    295.66797   -1224.9034    361.58272    467.48775   -44.463302    39194.267 
   30000    300.64526    -1224.473    349.65528    478.39353    92.463384    39194.267 
   30100    290.82201   -1275.5253    352.48871    385.96003   -229.50099    39194.267 
   30200    296.88845   -1230.9077    382.02414    487.41822   -307.15516    39194.267 
   30300    296.40899   -1194.3849    349.81587    489.57475   -298.37359    39194.267 
   30400    302.04904   -1235.2989    353.88957    478.12041   -96.038148    39194.267 
   30500      276.783   -1228.8971    357.78828    374.69791    126.19839    39194.267 
   30600     285.3779   -1244.3484    368.29287    408.43705   -215.43404    39194.267 
   30700     300.2133   -1225.7601    364.80536    490.31225   -1.0248578    39194.267 
   30800    297.67026    -1251.137    358.27461    446.95838   -141.09033    39194.267 
   30900     302.4459   -1177.7187    368.64422    552.24152   -4.3348934    39194.267 
   31000    303.10461   -1219.7179    374.30897    518.87189   -340.56258    39194.267 
   31100    291.35602   -1211.8745    372.55898    472.08465   -200.91677    39194.267 
   31200    307.03612   -1174.2534    371.89827    579.62151   -33.220799    39194.267 
   31300    294.30169   -1166.4681    408.55338    566.74405   -253.86854    39194.267 
   31400    300.43069   -1233.2293    377.80306    496.81925    213.34296    39194.267 
   31500    303.85043   -1229.8185    373.60303    511.42236    65.185553    39194.267 
   31600    311.86143   -1175.6515    385.35469    613.39867    -39.57492    39194.267 
   31700    300.41575   -1215.5555    358.89763    495.52041    510.95949    39194.267 
   31800    300.93037   -1147.1563    379.41607     586.7544    167.73641    39194.267 
   31900    297.44478   -1147.8507    382.68216    573.63732    203.92107    39194.267 
   32000    299.55621    -1168.622    360.40431    540.09177    114.50466    39194.267 
   32100    302.22964   -1187.5497    347.64663    520.43951    619.95078    39194.267 
   32200    290.30257   -1182.5847    369.19657     493.2704    322.05994    39194.267 
   32300    306.98251    -1186.401    375.03071    570.36507   -172.63188    39194.267 
   32400    298.97595   -1198.8561    356.87515    503.71675    252.81028    39194.267 
   32500      294.306   -1202.6221     390.7833    512.83929    246.60122    39194.267 
   32600    308.62827    -1218.836    365.37527    535.68226   -148.08766    39194.267 
   32700    299.51581   -1198.0653    374.88655    524.94889    786.03935    39194.267 
   32800    292.14345   -1222.3182    390.55742    483.18369    680.52886    39194.267 
   32900    303.22422   -1240.7385    385.26781    509.34854    672.85734    39194.267 
   33000    301.08757   -1245.7794    392.70108     502.1238     38.09976    39194.267 
   33100     302.1769   -1211.8429    357.93793    506.20024    192.90097    39194.267 
   33200    299.72245   -1211.2379    385.23934    523.05917    368.98574    39194.267 
   33300    290.11556   -1222.8402    381.90085    464.87747    135.14324    39194.267 
   33400    295.68696   -1229.9013    359.67913    460.67171   -155.01915    39194.267 
   33500    295.73714   -1218.9911    382.61181    494.74048   -235.37005    39194.267 
   33600    290.99461   -1223.6686    342.37268    428.47756    -297.7919    39194.267 
   33700    295.98588   -1212.0773     375.3839    495.54593     152.9957    39194.267 
   33800    298.07664    -1242.963    394.49739    493.18427   -1.2955109    39194.267 
   33900    300.19236   -1240.1543    368.34897    479.36748   -64.266871    39194.267 
   34000    298.87118   -1243.0611    392.89478    495.05984    591.95974    39194.267 
   34100    312.88356   -1270.3546    372.68433    510.62587    746.25586    39194.267 
   34200     295.5756   -1220.2288    379.27614    489.43995    784.55121    39194.267 
   34300    305.87292    -1236.979    352.43038    492.19249     579.8433    39194.267 
   34400    291.42999   -1198.2366    387.27432    500.77091    428.73532    39194.267 
   34500    298.90553   -1233.3647    386.34177    498.35777    674.59065    39194.267 
   34600    293.60552   -1231.6714     370.9166    460.77044    754.54025    39194.267 
   34700    297.26402   -1243.7362    379.81224     474.0683     261.1999    39194.267 
   34800    306.61021   -1244.3237    386.20005      521.936    65.591995    39194.267 
   34900    300.20807   -1209.7174    361.20774    502.73385    355.17411    39194.267 
   35000    297.05578    -1274.639    367.53656     429.9525     404.2393    39194.267 
   35100    307.42167    -1258.026    368.98811    494.67418    410.55849    39194.267 
   35200    298.04284   -1180.6197    382.98886    543.86692    104.67636    39194.267 
   35300    301.84641   -1236.0597    355.77987    478.33791     450.0762    39194.267 
   35400    294.01725   -1206.2739    380.99498    498.09955    541.51091    39194.267 
   35500    300.22609   -1228.3386    379.47463    502.46065    293.92429    39194.267 
   35600    292.72852   -1253.0559    369.43958    433.96153    34.140302    39194.267 
   35700    309.69175   -1281.2266    381.68658    494.38972    310.64949    39194.267 
   35800      307.107    -1290.006    365.76283     458.0526   -363.16732    39194.267 
   35900    307.62645   -1269.2545    380.48102     495.8603   -611.38268    39194.267 
   36000    291.47788   -1240.5472    396.40674    467.80823   -487.39039    39194.267 
   36100    292.39566    -1239.449    371.37389    448.00454   -138.61685    39194.267 
   36200    316.03345   -1232.2944    381.44351    571.62302   -94.644547    39194.267 
   36300    298.85442   -1256.7465    395.40918    483.81331   -167.12803    39194.267 
   36400    293.88617   -1222.4402    397.19854    497.54679   -607.31677    39194.267 
   36500    301.87527   -1242.6605    387.51745    503.60455    91.933204    39194.267 
   36600    308.18747   -1278.4369    385.85134    494.57334    551.76159    39194.267 
   36700    301.51413   -1253.0465    396.76302    500.83862    417.03391    39194.267 
   36800    296.80601   -1271.6352     392.3398    456.63535   -41.284653    39194.267 
   36900    295.62646   -1251.3706    375.84345    455.09433    318.39189    39194.267 
   37000    293.37186    -1251.956    369.16053    437.67806    141.58411    39194.267 
   37100    310.59835   -1281.2415    357.99781    474.76672    52.279948    39194.267 
   37200    302.80692   -1270.3464     379.2265    471.82106    234.37306    39194.267 
   37300    301.95931   -1270.8858    379.79486    468.03489     384.2538    39194.267 
   37400    307.07115   -1246.8257    380.23199     515.5407   -360.27468    39194.267 
   37500     304.4528   -1251.8778    421.24984    539.72119    305.24725    39194.267 
   37600    307.48644    -1285.478    394.43279    492.95837    535.32088    39194.267 
   37700    295.34819   -1291.2058    383.16612    421.32934    783.53986    39194.267 
   37800     299.7224   -1253.3539    394.95682    490.66034    259.23223    39194.267 
   37900    308.68597   -1209.6482    381.74104     561.4955     718.2935    39194.267 
   38000    298.21573   -1224.2319    394.59269    512.63673    77.510565    39194.267 
   38100    293.63963   -1237.4244    397.07509    481.32945    342.83407    39194.267 
   38200    288.90221   -1252.7674    413.27148    460.85963     642.2761    39194.267 
   38300    299.19894   -1250.8474    398.12494    493.97888    433.37247    39194.267 
   38400    299.90121   -1259.8649    396.01786     486.0153   -8.3708355    39194.267 
   38500    301.64065   -1268.8971    386.96197     475.7564    479.13299    39194.267 
   38600    295.65748   -1253.8881    400.68944     477.5625    240.72715    39194.267 
   38700    300.38397   -1252.6805    406.20528    505.55998   -62.582025    39194.267 
   38800     301.5733   -1235.6571    405.58477    527.31604    60.232934    39194.267 
   38900    294.06456   -1252.3933     388.4107    459.60878   -273.51803    39194.267 
   39000    303.04189   -1255.9015    391.64166    499.73874   -367.07732    39194.267 
   39100    292.64523     -1237.11     397.5056     477.5986    -21.89206    39194.267 
   39200    308.55872   -1263.4614    381.80788    507.17648    636.42454    39194.267 
   39300    293.68573   -1271.3807    385.40139    435.90696    888.77664    39194.267 
   39400    305.52382   -1258.9001    411.63917    527.90887      592.156    39194.267 
   39500    305.28526   -1253.5667     380.1687    500.69808    822.80522    39194.267 
   39600    300.42701   -1247.1308    403.75284    508.85102    694.70847    39194.267 
   39700     294.0742   -1215.1826     386.7224    495.17457    1287.4604    39194.267 
   39800    303.91948   -1203.6739    389.72883    554.00356   -60.720258    39194.267 
   39900     306.6105    -1218.557    380.69708    542.20101    316.95862    39194.267 
   40000    303.30979   -1234.0028    384.25459    515.45618    701.24784    39194.267 
   40100    297.00371   -1239.3564    392.36665    489.83086    732.42433    39194.267 
   40200    302.09128    -1240.323    397.39532     516.7922    473.16324    39194.267 
   40300    297.57411   -1226.2167    395.08331    508.25456    595.16769    39194.267 
   40400    315.59658   -1247.2945    385.04382     558.2568    511.63436    39194.267 
   40500    296.21271   -1254.5206    401.50535    480.24502    181.07367    39194.267 
   40600    300.98482   -1287.0897    392.43045     460.0804    253.17491    39194.267 
   40700    297.82171   -1258.5798    393.76981    475.69245   -105.07874    39194.267 
   40800    290.22071   -1280.5657    406.28124    432.00567   -274.01369    39194.267 
   40900    283.82488   -1262.4379     392.2938    407.35828   -150.71099    39194.267 
   41000     306.4743   -1284.4831    409.32008    504.28486    603.81548    39194.267 
   41100     294.0731   -1257.8248    396.96012    462.76519    190.18474    39194.267 
   41200    292.10058   -1214.2872    389.81719    490.28148     351.2655    39194.267 
   41300    297.65292   -1307.4256    397.62274    429.93984     265.5662    39194.267 
   41400    294.37777   -1293.1983    393.86505    425.66787    175.21913    39194.267 
   41500    305.30425   -1262.9333    397.39364    508.64182    634.36953    39194.267 
   41600    301.82604   -1238.1478    409.65938    530.03761    221.81176    39194.267 
   41700     309.7943   -1263.7107     410.1708    540.85138   -49.826168    39194.267 
   41800    290.19505   -1262.9547     397.5645    440.78445    100.28415    39194.267 
   41900    311.62281   -1265.1775    401.63845    539.08245    506.28678    39194.267 
   42000    299.11414   -1293.1452    410.65204    463.82654   -238.63008    39194.267 
   42100    306.14604   -1287.3828    423.93777    514.52543     261.0021    39194.267 
   42200    309.83509   -1280.2455    383.54954    497.87895    463.19939    39194.267 
   42300     287.6124   -1295.6766    410.30856    409.18207    78.839578    39194.267 
   42400    293.84471   -1292.5919    366.58147    396.59143   -108.42284    39194.267 
   42500    291.92302   -1285.8212    404.67434     432.8054    233.06025    39194.267 
   42600    289.37909   -1240.0313    395.94433    458.41506   -303.24338    39194.267 
   42700    294.86466   -1263.4321    386.24867    450.00923    127.04033    39194.267 
   42800      288.364   -1259.3854    426.95138    465.49898    161.68327    39194.267 
   42900    303.35864    -1295.155    409.01879    479.28803     77.32454    39194.267 
   43000    309.10712   -1230.7875    412.25444    572.76523     112.4461    39194.267 
   43100    300.67302   -1283.4649    379.97523     449.8465   -196.66731    39194.267 
   43200     295.6709   -1282.8673     397.6402    445.59452    43.110319    39194.267 
   43300    300.55319   -1265.0716    398.47334    486.19856    271.15597    39194.267 
   43400     291.9388   -1286.6139    402.77727    430.18663    210.00026    39194.267 
   43500    296.51233     -1293.43    398.97764    440.15654      228.958    39194.267 
   43600      296.595   -1282.1399    417.91287      470.754   -215.10768    39194.267 
   43700    307.44995    -1278.049    403.20173    508.99209   -85.717412    39194.267 
   43800    302.65733   -1285.0269    414.18708    491.42784   -344.03294    39194.267 
   43900    295.34435   -1282.4328    406.39734     453.3163   -51.218631    39194.267 
   44000    313.15607   -1289.0142    403.48489     523.9934    -223.1133    39194.267 
   44100    299.97373   -1282.2498    395.51396    463.45289    202.35562    39194.267 
   44200    304.34819   -1283.9548    409.43281    495.35627    455.90918    39194.267 
   44300    296.34898   -1285.3029    414.31079    462.88151   -109.92562    39194.267 
   44400    317.77754   -1309.9102    392.69391    513.10777    556.48461    39194.267 
   44500    301.12911   -1331.1402    430.03376    454.28263    824.45875    39194.267 
   44600    304.09303   -1390.9848    400.23693    377.98186    508.73724    39194.267 
   44700    298.85313   -1329.6822    401.97464    417.43731    807.47552    39194.267 
   44800    306.85362   -1313.9162    418.45528    485.69429    590.54027    39194.267 
   44900    306.00685   -1322.7857    396.88205    451.44026    613.93752    39194.267 
   45000    299.78284   -1287.7985     433.1613    494.69228    323.55912    39194.267 
   45100    301.72547   -1280.4405    406.87219    484.50504     476.5329    39194.267 
   45200    289.56979   -1238.2704     405.4923    470.58226    830.90488    39194.267 
   45300    290.49152   -1230.0984    388.45425    465.86492    217.11549    39194.267 
   45400    295.83979    -1291.297    404.89335    445.17812    42.589346    39194.267 
   45500    295.53318   -1331.0691    403.91598    403.04852   -56.025042    39194.267 
   45600    305.35369   -1260.6557    414.97062    528.71892   -189.02789    39194.267 
   45700    301.24329   -1295.2361    414.94931    475.61619    135.76664    39194.267 
   45800    304.81161   -1288.9598    416.90347    499.90778    648.43027    39194.267 
   45900    294.59974   -1263.5691     409.6309    472.06204    121.66055    39194.267 
   46000    305.93493   -1268.2586    407.61431    516.37592    182.13205    39194.267 
   46100    300.12276   -1278.0413    399.00378    471.82197     278.8179    39194.267 
   46200    306.79229   -1271.1702    420.96467    530.67369    216.19372    39194.267 
   46300    289.59764   -1275.6921    408.24938    436.04291    234.34283    39194.267 
   46400     293.7933   -1323.3643    395.08441    394.09059    75.787729    39194.267 
   46500    305.12208   -1270.7426     399.7392    502.35816    249.19796    39194.267 
   46600    298.51399   -1257.5227     397.8676    483.96333    661.68084    39194.267 
   46700    302.32242   -1251.7109    388.68307    497.73243    768.77983    39194.267 
   46800    290.11228   -1256.7637    423.97255    473.01095    210.24394    39194.267 
   46900    297.27841   -1258.3853     397.5078     477.1795    89.506601    39194.267 
   47000    294.37732   -1256.8273    400.89702     469.0689    464.17841    39194.267 
   47100    308.28929   -1272.2617     398.1814    513.53694   -45.371954    39194.267 
   47200    285.53618   -1282.1149    420.20877    423.29883    456.22161    39194.267 
   47300    302.34292    -1246.911    419.35623    533.29771    212.18734    39194.267 
   47400    294.56774   -1281.4533    410.52541    454.92829   -185.56052    39194.267 
   47500    288.92022   -1236.1133    425.64431    489.96759    125.34612    39194.267 
   47600    297.61572   -1218.7591    399.84522    520.66137    318.41555    39194.267 
   47700    310.66851   -1201.4009    433.73755    630.66285    110.90594    39194.267 
   47800    299.64896   -1219.6349     414.4664    543.55845    308.82033    39194.267 
   47900    293.13068   -1254.3813    404.39434    469.40103     282.0837    39194.267 
   48000    303.44002   -1269.6007     422.7482    518.93806    356.91215    39194.267 
   48100    296.64932   -1215.3603    420.01631    539.88147    302.61483    39194.267 
   48200    286.68736   -1249.5377    421.33477    462.18355    630.54011    39194.267 
   48300    300.66906   -1257.2963    412.51962    508.54171    132.62506    39194.267 
   48400    303.42159    -1259.945    401.76946      507.532    111.09678    39194.267 
   48500     296.5333   -1238.2444    405.76161    502.22048    332.83541    39194.267 
   48600    296.65307   -1266.9927     403.9676    472.21721   -370.68091    39194.267 
   48700    306.24172   -1229.3488    390.17633    539.22863   -162.66081    39194.267 
   48800    302.65454   -1227.0154    393.36719    528.60683   -373.62286    39194.267 
   48900    304.38505   -1261.6452    416.39897    524.79793   -172.82712    39194.267 
   49000    301.71082   -1238.8599    424.40344    543.55093    456.74372    39194.267 
   49100    303.68887   -1282.6965    407.70231    491.91643    210.79203    39194.267 
   49200    295.31495   -1243.7499    408.12798    493.59754   -334.71817    39194.267 
   49300    304.35286   -1250.6751    381.72134    500.94552   -263.03018    39194.267 
   49400    292.88157   -1241.9828    404.57167    480.85565   -400.77618    39194.267 
   49500    312.95549   -1225.2756    434.48096    617.82521   -135.77729    39194.267 
   49600    301.59569   -1250.5572    398.53583    505.46782    95.332006    39194.267 
   49700    304.15531   -1278.1212    387.91686    478.80573   -244.93286    39194.267 
   49800    298.41161   -1292.7573    399.60556    450.00584   -341.69908    39194.267 
   49900    299.17344   -1303.5479     395.7512    438.78987    131.08249    39194.267 
   50000    313.89976   -1277.8785    420.24744    555.23908     343.3377    39194.267 
   50100    298.93276   -1271.9524    437.65217      511.203    495.50821    39194.267 
   50200    300.62196   -1288.4707    417.19038     481.8261   -172.93785    39194.267 
   50300    306.81263   -1252.7457    400.33747    528.56256     175.6115    39194.267 
   50400    294.87889   -1284.2705      418.337     461.3232   -118.84834    39194.267 
   50500    302.52078   -1235.0948    426.27284    552.83111    548.31698    39194.267 
   50600    301.77986   -1280.8339    414.11078    491.59507    -80.69632    39194.267 
   50700    304.36705   -1302.3494    412.57692    480.19071    50.022112    39194.267 
   50800    304.18853   -1284.5331    404.51018    489.13671    184.66328    39194.267 
   50900    287.48442   -1300.6953    415.29944    408.57823   -329.65252    39194.267 
   51000    303.37119   -1268.6455     422.9743     519.8095   -273.97115    39194.267 
   51100    300.15341   -1296.0853    417.25195    472.16411   -972.29245    39194.267 
   51200    300.39984    -1345.606     391.6073    398.10792   -429.53991    39194.267 
   51300    294.73909   -1314.7767    430.92043     442.7712   -212.02129    39194.267 
   51400    304.60821   -1296.8199    428.57653    502.80528    375.58296    39194.267 
   51500    303.56384   -1284.8541    430.72434    512.21815     228.4033    39194.267 
   51600    305.29688   -1264.4669    427.45226    537.13376     450.8934    39194.267 
   51700     300.0513   -1273.1592    434.71927    512.09791    160.81256    39194.267 
   51800    296.74544   -1262.8282    426.38258    499.21252    375.83627    39194.267 
   51900    300.56033   -1271.6357    401.23081    482.42416    406.22467    39194.267 
   52000    302.51968   -1294.6292    425.53854    492.55739    245.68194    39194.267 
   52100    302.41443   -1249.2958    425.28124    537.15976    297.26451    39194.267 
   52200    303.27397   -1254.2645    401.12644    511.90514    313.93384    39194.267 
   52300    308.24858   -1309.3901    428.43229    506.47616   -27.546007    39194.267 
   52400    302.50905   -1247.3543    438.89144    553.13735    223.13257    39194.267 
   52500    310.36299   -1259.2078    401.29749    539.04074    76.639485    39194.267 
   52600    293.44397    -1267.602    414.96137    468.15753   -202.97832    39194.267 
   52700    296.36529   -1280.5887    413.99746    467.35585    151.06905    39194.267 
   52800    300.09419   -1262.8218    418.04144    505.95058    200.64713    39194.267 
   52900     279.2053     -1282.12    425.20921    399.79869   -454.98424    39194.267 
   53000    291.98456   -1257.4807    406.61902     463.3676    -322.9286    39194.267 
   53100     304.2566   -1249.1547    438.52324    558.83449   -632.16341    39194.267 
   53200      298.628   -1266.2782    432.83738    510.69076   -470.67998    39194.267 
   53300    301.22751   -1282.3327    437.22998    510.72931    72.171227    39194.267 
   53400    300.25316   -1286.6788    421.37776    486.14537   -213.07638    39194.267 
   53500     293.2683   -1266.5343    419.30961    472.78267    78.417977    39194.267 
   53600    300.92437   -1277.5246    412.42499    489.36794    -156.9205    39194.267 
   53700    290.15777   -1299.6222    393.75718    400.14183   -546.93527    39194.267 
   53800    304.36528   -1268.7724    428.40171    529.58445    78.747796    39194.267 
   53900    291.26797   -1300.8053    416.64318    426.84171   -111.55619    39194.267 
   54000    294.00363   -1299.7764    436.72758    460.26834    215.09554    39194.267 
   54100    302.51899     -1311.15    435.29343     485.7884   -39.832111    39194.267 
   54200    304.52485   -1316.3813    396.10651    450.39862    9.4879695    39194.267 
   54300    293.55413   -1298.0126    407.67618    430.95759    382.01838    39194.267 
   54400    298.59169   -1289.9851    395.66691    449.64992   -274.46219    39194.267 
   54500    292.20517   -1270.4376    417.07828    461.86296   -239.26722    39194.267 
   54600    292.73257   -1318.2014    405.22644    404.62111     29.32781    39194.267 
   54700    304.39375   -1265.1074    428.02369    532.99964    42.235281    39194.267 
   54800    304.37695   -1252.9846    425.77154    542.79469    204.15706    39194.267 
   54900    301.03939   -1257.9948    406.21696    503.20747   -70.469817    39194.267 
   55000    294.90921   -1284.9388    411.73342     454.1878   -349.44759    39194.267 
   55100    306.60801   -1262.6853    408.87872    526.24317   -455.00307    39194.267 
   55200    298.45481   -1234.2006    418.73222    527.88369   -529.05396    39194.267 
   55300    294.82799   -1245.7935    434.88516    516.11923   -941.90982    39194.267 
   55400    306.33103   -1306.4648    409.66878    482.00706   -410.52201    39194.267 
   55500    292.48005   -1293.4184    403.52513    426.56618    421.24428    39194.267 
   55600    305.60534   -1272.0427    409.61237     513.1064    -1.596572    39194.267 
   55700    314.00098   -1270.2133    399.25348    542.36588    609.62798    39194.267 
   55800    302.62664   -1291.5523    416.13117    486.70835    313.44895    39194.267 
   55900    295.29801   -1274.1566    436.95831    491.94493   -120.67976    39194.267 
   56000      302.953   -1300.0616    426.12856    489.66547    377.01595    39194.267 
   56100    295.39489   -1336.6768    425.53882    418.44126   -202.11467    39194.267 
   56200    309.23689    -1303.644    417.27442    505.51283     426.5468    39194.267 
   56300    306.48185   -1303.4083    434.87315    510.94677   -337.99681    39194.267 
   56400    306.12702   -1322.4347     448.4607    503.91082     58.60572    39194.267 
   56500    295.60623   -1345.1405    410.68751    396.07755   -478.35545    39194.267 
   56600    293.65508   -1304.0725    415.13333    432.80915   -176.21281    39194.267 
   56700    305.28981   -1291.7481     440.6636      523.032    363.76656    39194.267 
   56800     305.4539   -1290.2618    435.33051    519.92381   -142.87894    39194.267 
   56900    301.43143   -1286.1801    422.77567    493.34543    468.78096    39194.267 
   57000    301.94267   -1306.3061    432.06048    484.80535    64.694762    39194.267 
   57100    297.61004   -1274.1913     392.5083    457.86665    558.66096    39194.267 
   57200    289.30076   -1307.1227    427.00987    422.03664      585.761    39194.267 
   57300    302.53891   -1337.0412    418.57319    443.26665    706.24211    39194.267 
   57400    290.94627   -1325.3773    436.49966     420.6783    482.71917    39194.267 
   57500    295.99356   -1309.8592    441.24688    463.66156     298.9914    39194.267 
   57600     306.9798   -1355.6799    437.06032    463.10361    615.10547    39194.267 
   57700    299.37797   -1336.3356    416.08122    427.25278    45.300418    39194.267 
   57800    294.55016   -1354.9022    425.04835    395.92323    301.68584    39194.267 
   57900    304.46646   -1339.9016    404.55015    435.05919    369.90532    39194.267 
   58000    306.46695   -1334.7555    425.80437    470.46374     428.8123    39194.267 
   58100     302.5393   -1327.7854    420.85096    454.80198    388.36964    39194.267 
   58200    305.79268   -1333.5385     418.6986    461.53997    542.40706    39194.267 
   58300    299.73171    -1305.527    429.58202     473.1544     529.5255    39194.267 
   58400    302.56785    -1304.685    422.31457    479.49448    218.79533    39194.267 
   58500    302.05328   -1336.7751     438.0674    460.84112    489.90238    39194.267 
   58600    299.63522   -1290.8505    446.05686    503.87141    765.06382    39194.267 
   58700    294.30127   -1284.7374    441.13743    481.05682    651.25882    39194.267 
   58800    303.31182   -1342.7653     426.1723    448.62057    277.30346    39194.267 
   58900    294.26155   -1327.7473    432.77269    429.50341    729.33514    39194.267 
   59000    306.13805    -1302.518    424.28136    499.69788   -284.01951    39194.267 
   59100    311.66555   -1307.4177    426.77554    522.17165   -319.75368    39194.267 
   59200    293.15974   -1387.3708    436.97946    369.12747   -385.54786    39194.267 
   59300    290.11637   -1319.2968    420.05736    406.58113    53.196454    39194.267 
   59400    294.06546   -1309.6243    442.75068    456.72189   -154.63114    39194.267 
   59500    294.03898   -1335.8741    408.47451     396.0767    -2.048742    39194.267 
   59600    302.97539   -1354.5115    421.81862    431.00639    105.52316    39194.267 
   59700    306.17137   -1342.6772    434.01346     469.4207   -347.18261    39194.267 
   59800    308.38009   -1377.9091    414.37554     424.4924    310.18027    39194.267 
   59900    298.22988   -1332.2984    434.14121    444.18241   -271.65712    39194.267 
   60000    296.71501   -1342.5681    415.06268    408.01573    158.81547    39194.267 
   60100    299.51293   -1378.5102    418.38404    387.98844   -331.09473    39194.267 
   60200    300.40876   -1373.1364    439.23588    418.24624     157.0981    39194.267 
   60300    300.37464   -1374.0635    432.89019    410.81995   -468.65784    39194.267 
   60400    308.22078   -1334.2779    432.34893    485.37995    73.829364    39194.267 
   60500    313.16548   -1343.4527    401.76535    467.87775   -134.11707    39194.267 
   60600    296.73223   -1341.5413    442.98639    437.04379   -271.78811    39194.267 
   60700    303.60181   -1349.5411    415.91343    432.89114    54.597483    39194.267 
   60800    304.96188   -1406.8646    441.87211    407.64803    544.08664    39194.267 
   60900    309.08412   -1370.8272    432.85257    453.22017    479.07011    39194.267 
   61000    299.81539   -1336.6328    439.12007    451.96331    867.14061    39194.267 
   61100    301.56784   -1361.2612    407.95136    404.05402    950.59559    39194.267 
   61200    296.81851   -1317.2345    463.96903    482.72155    988.50291    39194.267 
   61300    289.53304   -1364.1764    431.93702    370.95555    493.73049    39194.267 
   61400    306.55793   -1340.5936     427.7542    466.98492    799.40028    39194.267 
   61500    286.94442   -1342.1024    434.07989    383.52102    314.66756    39194.267 
   61600    309.89749   -1330.4755    423.01784    487.39811    184.74122    39194.267 
   61700     294.3195    -1361.228    441.96583    405.47669   -530.48431    39194.267 
   61800    306.78317   -1325.2896    442.15795    497.70652    387.09809    39194.267 
   61900    303.75111   -1322.6576    423.62873    468.16188    280.29653    39194.267 
   62000    307.96707   -1315.6528    450.67394    521.18804   -446.24254    39194.267 
   62100    316.33425   -1312.1909    469.17544    580.81229   -196.76352    39194.267 
   62200    295.73612   -1342.6502    446.62283    435.08772   -454.22245    39194.267 
   62300    301.66224    -1336.544    443.09134    464.33611    243.89094    39194.267 
   62400    286.19646   -1360.9367    405.13587     332.3761   -595.10884    39194.267 
   62500    303.53914    -1310.592    412.84956    468.49423   -156.13439    39194.267 
   62600    294.03452    -1399.866    445.36459    368.95476   -628.24618    39194.267 
   62700    306.73273   -1397.2516    429.53524    412.89472   -302.20532    39194.267 
   62800    298.06558   -1408.7535    444.98518    377.83176   -27.638298    39194.267 
   62900    286.51866   -1387.8016    426.21598    328.04147    -50.43637    39194.267 
   63000    299.41444   -1327.2489    438.76865    459.19109    201.67097    39194.267 
   63100    298.65364   -1373.4371    430.76406    401.57396    -175.1625    39194.267 
   63200    293.74102   -1378.1005    449.58939    393.62399   -75.213586    39194.267 
   63300    296.84126   -1398.2819     425.6192    363.42669    481.36272    39194.267 
   63400    305.69363   -1392.9294    420.73923    403.74394    475.95795    39194.267 
   63500    308.64699   -1420.2303    424.52078    393.51774   -114.14018    39194.267 
   63600    297.87058   -1354.7365    417.48957    403.47547    -88.04378    39194.267 
   63700     303.0037   -1339.1889    443.57439    468.21218   -27.420686    39194.267 
   63800    304.48487   -1349.7396    406.17829    426.93219    34.467664    39194.267 
   63900    301.17764   -1329.5653    448.80439    474.84666    27.109865    39194.267 
   64000    294.62766   -1387.2327    443.53495    382.42815   -138.86292    39194.267 
   64100    303.75499   -1338.5752    435.10324    463.73623    431.54673    39194.267 
   64200    301.75605   -1372.4408    443.28757     429.0577   -247.36726    39194.267 
   64300    289.17315   -1364.8028    406.93364    343.70588   -608.04784    39194.267 
   64400     300.8196   -1343.1224     435.0743    445.94785   -623.87304    39194.267 
   64500    303.95343   -1375.8514     441.9434    434.19337    -190.3787    39194.267 
   64600    301.92928   -1343.5902    448.44243    463.84294   -17.206943    39194.267 
   64700    309.84883   -1359.8564    456.58622     491.3666    18.184853    39194.267 
   64800    309.55179   -1337.6433    460.62592    516.28239    277.21379    39194.267 
   64900    304.48815   -1323.0873    453.48232    500.90324    512.82285    39194.267 
   65000    304.81995   -1341.6831    452.70851    483.02706    91.240145    39194.267 
   65100    305.63231   -1333.7315    437.71824    479.64481    632.72863    39194.267 
   65200    302.10121   -1359.1451     473.7251     474.3446    1016.7764    39194.267 
   65300    300.57855   -1325.6221    477.06806    504.35699    284.08527    39194.267 
   65400    296.27577   -1330.8926    416.22818    418.87974    107.30491    39194.267 
   65500    294.40222   -1287.1593     444.7936    482.74548    339.85761    39194.267 
   65600    296.74721   -1310.4654    451.17714    476.37777    30.147764    39194.267 
   65700    294.94396   -1305.9592    428.77061    450.36102    9.2121286    39194.267 
   65800     300.1961   -1316.9145     449.5399    483.81503    149.40136    39194.267 
   65900    298.69505   -1357.9237    447.01697    433.52661    342.16068    39194.267 
   66000    301.62541   -1354.5755    470.25912    473.30658     614.5273    39194.267 
   66100    301.82306   -1357.4521     418.0564     419.1169    231.98167    39194.267 
   66200    289.63264   -1397.9704    457.91412    363.58695    162.91318    39194.267 
   66300    301.69777   -1388.8432     456.3489    425.45437    340.20603    39194.267 
   66400    296.06735   -1386.9581    428.54193    374.18986   -111.19037    39194.267 
   66500    308.54015   -1373.8744    445.84272    460.71468    327.31079    39194.267 
   66600    297.10237   -1354.4779    444.98479    427.77155    56.499739    39194.267 
   66700    303.66198   -1348.0326     465.6293    484.38626   -95.988563    39194.267 
   66800     300.1671   -1327.0684    459.43091    483.42152    362.44932    39194.267 
   66900    307.60274   -1376.6769    449.58467     457.4348    511.90259    39194.267 
   67000    304.15152   -1359.2659    418.33523    428.06236   -28.156752    39194.267 
   67100    299.16369    -1366.403    441.39584    421.53551     114.5898    39194.267 
   67200    290.79893   -1402.8728    441.29113    347.31108    43.261199    39194.267 
   67300    310.18793   -1376.4404    450.85842    470.58106     293.6721    39194.267 
   67400    312.48002   -1349.7552    456.86291     513.5875     228.3647    39194.267 
   67500    300.78082   -1359.1329    444.54589    439.23438    35.514276    39194.267 
   67600    299.78745   -1393.0886     447.6732     403.9349   -3.5473176    39194.267 
   67700    303.71509   -1370.2724      425.807    422.56328    329.08001    39194.267 
   67800    300.94145   -1372.0514    442.75862    425.25164    45.688947    39194.267 
   67900    302.68053   -1349.5181    458.24296    471.09699    408.27858    39194.267 
   68000    310.89389   -1311.7039    455.45348     543.0902    133.66206    39194.267 
   68100    295.76908   -1352.6395    457.68858    436.31257   -187.31295    39194.267 
   68200    292.18742   -1365.1793     438.3455    388.30853    756.06713    39194.267 
   68300    300.10299   -1359.5258    468.30393     459.5486    1167.4001    39194.267 
   68400    301.28418   -1360.1651    463.62857    459.55054    753.05682    39194.267 
   68500    293.72469   -1345.8529    454.22183    430.43062    871.44413    39194.267 
   68600    307.95536   -1364.2357     446.2856    468.16413    768.86231    39194.267 
   68700    297.28527   -1365.8956    472.41332    444.60562    499.85234    39194.267 
   68800    295.03395   -1376.4358    473.37824    424.89706     440.3735    39194.267 
   68900    304.83257    -1317.258    489.96455    544.76507    244.77158    39194.267 
   69000    300.84809   -1326.7974    462.97937    490.30619    607.20863    39194.267 
   69100    293.94903   -1363.1366     450.4544    410.38916   -167.88328    39194.267 
   69200    301.32291   -1369.2678     456.7359    443.72951    140.27473    39194.267 
   69300    305.29237   -1350.5636    452.00909    475.57352   -102.10716    39194.267 
   69400    293.83865   -1328.6831    453.00979    446.90122    88.659035    39194.267 
   69500    299.60734   -1337.8628    452.79062    463.46744   -93.947014    39194.267 
   69600    300.25582   -1347.9412    447.31621     450.8334   -325.40694    39194.267 
   69700    304.45983   -1339.2581    464.58634    495.70902     19.08508    39194.267 
   69800    307.03646   -1342.6728    455.22074    494.52618   -44.231079    39194.267 
   69900    292.81647   -1283.2232    460.59908    495.34955   -306.72879    39194.267 
   70000    303.96807   -1285.8968    463.42773     545.6982   -210.80554    39194.267 
   70100    301.30358   -1366.1652     440.1995    430.20865   -64.809441    39194.267 
   70200    294.56378   -1339.9021    445.33219    431.26851   -407.33068    39194.267 
   70300    289.74819   -1357.5369    475.06398    421.69043   -365.91003    39194.267 
   70400    306.55092   -1361.5743    458.30218    476.52072   -678.92688    39194.267 
   70500    291.75839   -1392.9126    469.74833    390.04702    32.767403    39194.267 
   70600    308.47115   -1369.8193    454.26123    472.87767    124.28981    39194.267 
   70700    301.30132   -1332.0606    440.60104    464.70468     331.6886    39194.267 
   70800    299.09321   -1354.4478      450.721     442.4987    73.589902    39194.267 
   70900    304.64449   -1338.8338    483.93673    516.31482    199.06617    39194.267 
   71000      290.834    -1320.245    467.69817    456.50374    281.75596    39194.267 
   71100    294.77895   -1309.0713    470.02145      487.757    311.01142    39194.267 
   71200    299.06787   -1344.5965    455.42167    456.93659    208.36655    39194.267 
   71300    313.05822   -1283.6526    470.66526    596.09495    88.806393    39194.267 
   71400    301.16952   -1292.6524    467.40377    530.32237    479.70645    39194.267 
   71500    295.17727   -1360.7408    478.48479    446.34377    385.31442    39194.267 
   71600     295.4877   -1343.4665    466.29769    452.82814    803.09977    39194.267 
   71700     303.3211   -1321.3713    469.25499      513.139    377.24808    39194.267 
   71800    301.03195   -1314.7406    466.44434    506.65555   -181.92513    39194.267 
   71900    300.68157   -1341.1235    452.73341    464.98467    17.024888    39194.267 
   72000    313.31353   -1327.5725    455.37496    538.03393   -359.67721    39194.267 
   72100    306.72723   -1322.2026    457.91993    516.30375    158.66757    39194.267 
   72200    297.95603   -1326.8779    465.72575    479.95481   -219.56107    39194.267 
   72300    302.89877   -1319.7715    465.34014    508.92296    45.860245    39194.267 
   72400    296.86064   -1326.0146    471.20089    481.36292   -246.00945    39194.267 
   72500    301.39146   -1341.8347    469.88561    484.62089   -713.67862    39194.267 
   72600    291.01653   -1368.0967    465.72813    407.50355    103.91346    39194.267 
   72700    298.49345   -1335.7707    439.41027    447.16547    438.27894    39194.267 
   72800    300.01019   -1329.5759    477.62357    498.40047    179.93162    39194.267 
   72900    297.88873    -1376.567    469.51668    433.75376    155.09119    39194.267 
   73000    294.58281   -1309.2457    458.47741    475.15575    631.99826    39194.267 
   73100    295.00851   -1338.2308    473.45982    463.06912    212.28576    39194.267 
   73200    306.63372   -1347.3713    474.89481    507.68902    785.58219    39194.267 
   73300    300.93701   -1311.8922    477.62478    520.25701    478.95795    39194.267 
   73400    290.53612   -1344.3329     461.0444    424.42135   -362.68423    39194.267 
   73500    308.59707   -1315.6547     475.2738     548.6217   -399.55118    39194.267 
   73600    308.40758   -1282.8445    452.78154    558.08674   -56.346799    39194.267 
   73700    295.95141   -1284.0183    445.08631    493.15214    138.58569    39194.267 
   73800    299.29342   -1322.1907    479.30766    504.24362    -421.0786    39194.267 
   73900    298.45579   -1331.7714    456.50776    468.09284    521.06988    39194.267 
   74000    292.66101   -1340.4681    463.65137     440.4572    222.61098    39194.267 
   74100    307.98348   -1312.1692    473.68915    547.76077    384.17038    39194.267 
   74200    299.88461   -1350.8484    486.30342    485.24258    375.61338    39194.267 
   74300    298.21738   -1342.0491    475.50323    475.73745   -39.637748    39194.267 
   74400    302.84514   -1341.6687    455.82353    477.26779   -108.48038    39194.267 
   74500    315.09971   -1356.7214    460.31892    521.86858     108.2674    39194.267 
   74600    300.90969   -1382.4849     478.9065    450.82306   -423.59649    39194.267 
   74700    306.40363   -1395.7134    465.60923    449.02564   -590.81764    39194.267 
   74800    304.59365   -1397.5179     462.2666    435.73181    129.25436    39194.267 
   74900    305.51358   -1372.0372    493.70685     496.7934    -279.0243    39194.267 
   75000    294.62411   -1354.8981    460.28698    431.49877   -582.60631    39194.267 
   75100    288.09405    -1342.679    460.13414    414.17319   -280.97862    39194.267 
   75200    310.48515   -1337.8147    471.23026    530.91645    174.51902    39194.267 
   75300    300.10733    -1343.689    454.24751    461.34857   -146.10378    39194.267 
   75400    316.31757    -1369.547    447.53692    501.74266   -84.201196    39194.267 
   75500    300.40502   -1389.6747     463.4942    425.94951     268.7159    39194.267 
   75600    294.96889   -1341.0777    477.42616    464.01025    245.55613    39194.267 
   75700     307.0032    -1358.899    472.88498    495.81449    426.75864    39194.267 
   75800    303.38338   -1381.0594     475.9497    460.42595    161.37123    39194.267 
   75900    293.87406   -1387.9715    494.92037    429.68279     449.7567    39194.267 
   76000    297.96096   -1380.4163    453.86636    414.57928    159.49633    39194.267 
   76100    299.28592   -1341.7554    493.48472    498.82218    406.99817    39194.267 
   76200    300.14867   -1353.0065    468.35869    466.32835   -123.03537    39194.267 
   76300    308.10791   -1320.2832    448.98887    515.50656   -260.81116    39194.267 
   76400    298.51284   -1337.3131    463.19886      469.499   -373.54064    39194.267 
   76500     309.3902   -1349.5687    462.30187    505.30566     213.3283    39194.267 
   76600    306.12821   -1344.9894    459.33548    492.23625    440.97544    39194.267 
   76700    301.74369   -1354.0028      467.659    471.81153    226.02756    39194.267 
   76800    295.75595   -1317.7036    467.17116    480.67199    316.56011    39194.267 
   76900    300.79362   -1312.8399    497.90651    538.94571   -373.18057    39194.267 
   77000    294.40841   -1360.7475    458.83255    423.22412   -111.99542    39194.267 
   77100    309.26596   -1312.4263    474.63279    554.21974    112.39403    39194.267 
   77200    296.65905    -1323.944    499.37765    510.70286   -26.470638    39194.267 
   77300    297.48957    -1354.656    486.82113     471.1726    24.651753    39194.267 
   77400    293.83386   -1326.0544     467.8935    464.39207    138.46895    39194.267 
   77500    299.72075   -1387.7979     464.0494    425.30154    120.98574    39194.267 
   77600    298.36223   -1412.7605    490.92521    421.09996   -217.23328    39194.267 
   77700    302.02846   -1393.9834    472.44211    437.89584    63.612621    39194.267 
   77800    301.97852    -1429.332    464.62385    394.50417    -109.1855    39194.267 
   77900    294.54451   -1416.4625    470.46944    379.75864   -66.517773    39194.267 
   78000    302.19045   -1387.6872     459.5355    432.01452   -49.497899    39194.267 
   78100    290.39651   -1375.4809     474.6113    406.21184   -380.42607    39194.267 
   78200    299.72858   -1349.2255    463.70343    463.56323   -577.56999    39194.267 
   78300    302.47197   -1364.6581    450.81503    447.59031   -417.25679    39194.267 
   78400    293.21866   -1360.8271    450.43842    409.39534   -789.72274    39194.267 
   78500     298.3645   -1389.3049    471.96133    425.60199   -539.30091    39194.267 
   78600    295.95656   -1349.1959    475.39194    458.30339   -260.82247    39194.267 
   78700     304.6137   -1374.5907    452.66867     449.1513   -692.11528    39194.267 
   78800    296.00728   -1351.6199    459.86482    440.58054   -816.11458    39194.267 
   78900    291.56954   -1358.9838    451.14182    404.51928   -539.80536    39194.267 
   79000    296.32115   -1383.4936    464.58378    414.83849   -160.18017    39194.267 
   79100    303.59366   -1379.2177    488.41962    475.68401   -128.92794    39194.267 
   79200    301.25795   -1418.2373    483.93269    421.66444    200.64659    39194.267 
   79300    303.85997   -1397.2749    484.08105    454.48686     126.0123    39194.267 
   79400    296.72012   -1377.7732    478.13719    435.90813   -307.23309    39194.267 
   79500    302.72434   -1359.4656    479.91698    483.02059   -310.07511    39194.267 
   79600     303.5923     -1338.49    489.06818    517.05415   -426.20736    39194.267 
   79700    298.03011   -1342.5608    488.15805     487.0377   -725.55021    39194.267 
   79800    307.32475    -1366.212    467.61731    484.68113   -1208.8872    39194.267 
   79900    298.99152   -1352.6744    483.32213    476.41549   -736.98515    39194.267 
   80000    303.18478   -1361.8711    482.51479     485.2854   -357.42448    39194.267 
   80100    295.26803   -1353.2066    479.49309    455.29474   -416.78168    39194.267 
   80200    300.01855   -1411.0888    467.48147     406.7831    5.1832962    39194.267 
   80300    293.96833   -1400.9363    458.59843    380.82043   -259.57865    39194.267 
   80400    309.56294     -1354.93     465.8967    504.31673    248.31212    39194.267 
   80500    301.00598   -1425.6647    479.06367    408.23387    525.75358    39194.267 
   80600    301.33166   -1394.5535    467.53522    429.28245    612.43121    39194.267 
   80700    298.70175   -1372.9432    467.48052    439.00085   -103.13443    39194.267 
   80800    303.76781   -1330.2214    492.03737     529.0819    -128.1963    39194.267 
   80900    309.35758   -1335.6142    442.32219    499.13364   -70.779627    39194.267 
   81000    295.38903   -1351.1366    529.13154    507.54786    130.23405    39194.267 
   81100    291.38019   -1349.7539    453.38482    415.13992   -588.44158    39194.267 
   81200    310.78093   -1361.7051    458.69347    495.82056   -510.83809    39194.267 
   81300    310.87293   -1315.9777    459.75241    543.02101    -709.5224    39194.267 
   81400    300.05133   -1307.2165    471.73157    515.05306   -885.69902    39194.267 
   81500    299.44626   -1322.7639      471.542    496.59268   -235.66807    39194.267 
   81600    307.35957   -1308.6019    483.16502    557.99572   -44.909178    39194.267 
   81700    292.12854   -1382.6962    476.56933    408.75053   -14.297364    39194.267 
   81800    297.39315   -1340.1538    463.41023    461.82985    473.35634    39194.267 
   81900     305.2673   -1318.5691    479.47854    534.92459   -213.44221    39194.267 
   82000    288.25406   -1337.7164     481.2734    440.99516   -142.15897    39194.267 
   82100     299.1047   -1344.6212    471.94689    473.60291   -112.01977    39194.267 
   82200    294.42601   -1370.0552    477.29011     432.4532    89.243223    39194.267 
   82300    293.19399   -1351.8625    470.04888    437.85936   -460.17453    39194.267 
   82400    307.72895   -1368.2023    466.70445    483.59726   -178.92172    39194.267 
   82500    301.73667   -1341.0304    475.15664    492.24996    237.30914    39194.267 
   82600    304.20188    -1386.312    455.29941    438.20717    53.753903    39194.267 
   82700     303.8405   -1381.9725     495.1387    480.75932     14.71096    39194.267 
   82800      296.906   -1359.2249    438.70196    415.85785    202.95259    39194.267 
   82900    299.88967   -1402.8817    473.34291    420.27157    -144.1823    39194.267 
   83000    300.63456   -1406.0746    470.04246    417.13101   -207.91296    39194.267 
   83100    295.66976   -1393.3299    456.85211    394.33871    12.743997    39194.267 
   83200    297.89514   -1396.9142    486.76209    430.68079   -470.50969    39194.267 
   83300    306.37914   -1368.5759    481.59807    492.04181    210.71056    39194.267 
   83400    306.25002   -1431.0056    492.86798    440.30078    244.78589    39194.267 
   83500     293.4004   -1413.0053    460.61824     368.2149    393.87787    39194.267 
   83600    302.97268   -1402.2539    462.08362    423.51677    563.63216    39194.267 
   83700     291.4967   -1392.5121    455.21542    374.73671    93.455713    39194.267 
   83800     300.5166    -1387.735    455.63624     420.5334    14.090032    39194.267 
   83900    294.86525   -1397.7457    483.93508    413.38468    239.42547    39194.267 
   84000    291.43249   -1357.8271    472.87456    426.79182    830.32181    39194.267 
   84100    297.35666   -1354.9979     474.2724    457.68376    74.298101    39194.267 
   84200    304.07964   -1368.7206    463.34224    463.29112   -162.68913    39194.267 
   84300    293.07725   -1360.3621    448.45352    407.23894    176.40722    39194.267 
   84400    297.08791   -1328.0125    476.62552    485.81255    201.97568    39194.267 
   84500    296.76028    -1398.886    446.25829    383.09724   -375.53238    39194.267 
   84600    309.10068   -1317.7539     461.7216    535.23704   -255.39083    39194.267 
   84700    304.50663    -1317.863    448.48674    501.21515   -196.26423    39194.267 
   84800    296.02374   -1346.9333    463.87747    449.35385   -665.64238    39194.267 
   84900    304.69825   -1356.8069    469.18325    483.83018     -143.197    39194.267 
   85000    292.58201   -1309.7057    460.00328    467.21599   -407.55819    39194.267 
   85100    297.50692   -1270.5769    452.10191    520.61053   -157.70143    39194.267 
   85200    300.78606   -1301.3238    468.17056    520.69179    -423.1447    39194.267 
   85300    290.38991   -1340.4108    462.12439    428.76533   -335.68097    39194.267 
   85400     307.0378   -1319.8899     484.7719    546.86625   -52.053969    39194.267 
   85500     306.2584   -1380.5719    471.65887     469.5631   -595.97682    39194.267 
   85600    310.89268   -1368.0466     479.4411    510.72963    380.09167    39194.267 
   85700    308.48241   -1357.5699    478.19343    509.11004   -68.916401    39194.267 
   85800    301.56778   -1350.8781    483.94077    490.42623   -552.16632    39194.267 
   85900    298.43848   -1341.7343    456.62815    458.17236   -413.97518    39194.267 
   86000    294.59398   -1306.7358    447.32433    466.56283    -452.6396    39194.267 
   86100    294.83948   -1322.9904    490.15601     494.2449   -147.30505    39194.267 
   86200    288.38596   -1365.1963    464.79913    397.63476    41.761172    39194.267 
   86300    301.44971   -1362.7885    470.61743    464.66107   -46.689065    39194.267 
   86400    296.45198   -1379.2446    487.58971    442.68231    383.02459    39194.267 
   86500    295.55467    -1375.577    469.65744    424.37886    216.40255    39194.267 
   86600    307.99321   -1385.5584    477.41478      478.141    -462.1646    39194.267 
   86700    295.90471   -1385.1865    462.16177    408.84922   -88.430209    39194.267 
   86800     300.5891   -1364.1245    464.51833    453.35237    274.48597    39194.267 
   86900    295.72063   -1378.3693    479.62848    432.30461    104.43893    39194.267 
   87000    302.40467   -1344.0551      462.862    479.93736   -308.36004    39194.267 
   87100    307.02839   -1356.7237    463.96931     489.1875    -45.51065    39194.267 
   87200    308.50107   -1355.7882    464.99695    497.77927   -397.70677    39194.267 
   87300     291.0435   -1337.3478    473.73077    446.37654   -305.50687    39194.267 
   87400    290.18567   -1326.1222    474.60066    454.61091    282.54065    39194.267 
   87500    308.63665    -1332.215    472.82416    529.78988    484.20066    39194.267 
   87600    307.72531   -1373.5125    463.62238    475.18864    87.535798    39194.267 
   87700    297.90382   -1366.6493     472.8604    447.08312    62.219754    39194.267 
   87800    301.74935   -1393.9152     470.1715    434.43709     148.5512    39194.267 
   87900    300.48015   -1381.8341    458.24423    428.87822    414.26891    39194.267 
   88000    290.99056   -1380.8088    483.97334    412.91984   -231.19123    39194.267 
[...]
  984700    296.87694   -1448.3132    510.67065    398.60741   -221.77027    39194.267 
  984800    300.29682   -1434.8085    505.74405    422.57849    652.42661    39194.267 
  984900    306.38406   -1450.1972    519.95071    448.79522   -49.447879    39194.267 
  985000    299.75499   -1503.2909    526.39541    372.30867    61.341888    39194.267 
  985100    296.69296   -1424.4629    490.97018    401.92915    168.31518    39194.267 
  985200    308.00749   -1419.0203     512.5975    479.92606   -337.56709    39194.267 
  985300    286.11062   -1455.7696    502.33365    334.35463   -190.35311    39194.267 
  985400    296.75328   -1441.9225    494.72169    388.49258    655.74373    39194.267 
  985500    300.34742   -1452.1166    514.35395    414.10802    472.65204    39194.267 
  985600    300.57888    -1408.762    501.23596    445.38648   -51.542367    39194.267 
  985700    304.37782   -1405.4022     485.7644    450.37379   -121.20951    39194.267 
  985800    292.30391   -1449.4962     489.4249     355.5954    -250.4231    39194.267 
  985900     305.7581   -1396.4558     530.2239    509.99241   -233.56876    39194.267 
  986000    307.18999   -1383.1623    487.56028    487.06727    138.62671    39194.267 
  986100    295.03685   -1423.2266    518.10253    422.84364    457.89095    39194.267 
  986200     299.2137   -1486.8543    511.96502     371.8785    716.74028    39194.267 
  986300    292.77188   -1460.0698     525.9033    383.60647    382.25177    39194.267 
  986400    303.42448   -1468.4179    512.26784    409.57055    408.36037    39194.267 
  986500     300.5662   -1504.2391    512.32437    360.94069     496.4347    39194.267 
  986600    297.78763   -1516.9262    537.76966    361.19254   -103.53041    39194.267 
  986700    303.00026    -1498.264    487.92263    353.46979    646.29545    39194.267 
  986800     305.7497   -1516.5347    509.91257    369.56436    351.80129    39194.267 
  986900    295.94991   -1497.5182    516.95631    351.51546   -384.28819    39194.267 
  987000     301.9683   -1495.8072    482.96748    346.32654    -129.8614    39194.267 
  987100    308.34617   -1500.2752     504.7842    392.38227   -577.60506    39194.267 
  987200    290.62827   -1502.7391    506.18759    311.57305   -67.810767    39194.267 
  987300    306.07798   -1495.8616       494.26    376.06246    59.970506    39194.267 
  987400    293.54684   -1464.8924    492.57272    348.94147    461.36323    39194.267 
  987500    302.77947   -1451.1833    499.84935    411.48347    423.44383    39194.267 
  987600    309.89187   -1482.3742    504.65359    417.10983    464.20113    39194.267 
  987700    288.44394   -1481.4392    516.98294    333.83661    600.73389    39194.267 
  987800    289.57782   -1475.1594     523.7955    352.03259    652.80211    39194.267 
  987900    291.02548   -1486.3584    519.80675    343.36081    409.76664    39194.267 
  988000    294.41995   -1508.6375    509.64644    326.19996    515.52782    39194.267 
  988100    298.33741   -1493.0713    492.12791    341.88025    480.91284    39194.267 
  988200    290.32597   -1476.2387    489.14087    319.66612   -36.180436    39194.267 
  988300    300.75197   -1470.4907     498.8683    382.06916    200.13708    39194.267 
  988400    295.22237   -1475.3841    524.45802    377.87665    422.81153    39194.267 
  988500    298.97207   -1518.9202    507.15493    333.91494    238.71358    39194.267 
  988600    297.45566   -1496.5941    493.14607     335.4068     166.8796    39194.267 
  988700      295.767    -1480.199    502.91177    353.96695    723.08774    39194.267 
  988800     294.3146    -1486.657    519.62264    357.68246    642.91078    39194.267 
  988900    302.36391    -1465.286    508.98712    404.64804    436.31898    39194.267 
  989000    299.21596   -1476.3627    504.03507    374.45029    159.44246    39194.267 
  989100    304.86438   -1495.9831    503.90387    380.12247   -231.60085    39194.267 
  989200     308.2253   -1474.2298    499.14465    412.24402    118.60341    39194.267 
  989300    290.15578   -1470.3021    500.82498     336.5208   -108.72823    39194.267 
  989400    307.35959   -1522.1227    485.22401      346.534    271.54069    39194.267 
  989500    305.33351   -1480.3798    533.86856    427.80195    281.09563    39194.267 
  989600    294.79665   -1456.0693    495.52932     366.3466    411.21057    39194.267 
  989700    305.29056   -1442.3378    501.28015    433.06225   -46.195682    39194.267 
  989800    295.64738   -1489.9699    489.23427    329.98009    272.21811    39194.267 
  989900     305.5754   -1505.2794    545.68937    415.81195    96.504922    39194.267 
  990000    299.73256   -1502.7439    468.70721    315.06644    316.22285    39194.267 
  990100    307.77211   -1470.4296     508.5348    423.39457    159.92109    39194.267 
  990200     305.2599   -1458.3867    510.39988    425.99508    168.07194    39194.267 
  990300    309.92297   -1466.3709    514.58702    443.18661    98.062912    39194.267 
  990400    299.70086   -1451.2568    501.26314     398.9668   -38.689956    39194.267 
  990500    297.03227   -1460.4817    513.99833     390.4658    454.01596    39194.267 
  990600    294.41474   -1466.5426    513.50599    372.13092    5.0694358    39194.267 
  990700    298.84702   -1453.9463    498.91602    390.08713    309.18968    39194.267 
  990800    299.27517   -1493.9974    499.21067    352.25773   -129.30126    39194.267 
  990900    306.90343   -1491.0505    487.66629    377.99523    653.56402    39194.267 
  991000    315.98003   -1495.4692    491.78545    418.54965   -26.380725    39194.267 
  991100    297.50964   -1484.1114    512.20806     367.1944   -453.72082    39194.267 
  991200    287.29211   -1496.9245    485.78741    281.97139    67.833131    39194.267 
  991300    299.94966    -1467.498    469.67363    352.25597    350.29391    39194.267 
  991400     292.6202   -1407.9032    545.26638    454.45345   -120.28848    39194.267 
  991500    308.83893   -1389.9162     495.0502    495.22516   -113.28497    39194.267 
  991600    303.72524   -1463.9283    502.11996    405.26596    3.0737462    39194.267 
  991700    295.50362   -1484.2243    517.76201    363.60634    266.09277    39194.267 
  991800    314.78071   -1430.7643    494.90547    480.97649    809.45324    39194.267 
  991900    297.41543   -1438.1421    523.84531    424.37699    470.60593    39194.267 
  992000    295.87011   -1463.2958    529.76486    398.18731   -237.56681    39194.267 
  992100    297.97296   -1480.2484    501.54216    362.47696    -244.5059    39194.267 
  992200    307.64495   -1491.6468    495.59433    388.66455   -583.23119    39194.267 
  992300    291.84473   -1472.0629    512.42593    353.96289   -328.93983    39194.267 
  992400    297.33204   -1423.9884     465.1257    379.43566   -538.65085    39194.267 
  992500    305.85489   -1429.4297    496.30912    443.53935   -307.17286    39194.267 
  992600    312.60332   -1457.5432    531.74669    481.23826       101.25    39194.267 
  992700    297.81355   -1470.0946    503.02473    373.39585    193.90795    39194.267 
  992800    296.49209   -1470.1308    508.38283    372.76977    421.14175    39194.267 
  992900    305.04062   -1466.8732    510.11556    416.23728    351.07807    39194.267 
  993000    290.36824   -1473.7453    496.49327    329.70217   -217.38338    39194.267 
  993100     297.8385   -1483.5869    486.54939    343.54045    161.83303    39194.267 
  993200     300.2425   -1474.6872    520.57039    397.28168    46.328312    39194.267 
  993300    295.06722     -1483.71    467.01005    311.40447    456.67841    39194.267 
  993400    300.34085   -1518.8127    526.22811    359.25656   -437.29458    39194.267 
  993500    301.87241   -1489.1882     467.4616    337.00805   -114.44394    39194.267 
  993600    297.82942    -1522.772    472.03071    289.79587    369.01554    39194.267 
  993700    295.98582   -1489.2473    498.49841    341.49013    338.04264    39194.267 
  993800    283.67443   -1488.9519    548.50567    336.37897    411.16329    39194.267 
  993900    303.67843   -1500.1437    503.16454    369.88449    192.48143    39194.267 
  994000    295.82116   -1471.0598    520.75642    381.19451    532.24582    39194.267 
  994100    305.91738   -1439.6139    520.53971    457.86701    230.07965    39194.267 
  994200    305.44307   -1396.9057    515.43808     493.3387    -105.2627    39194.267 
  994300    304.14587   -1451.3426    493.84572    411.47078   -631.04209    39194.267 
  994400    303.86277    -1426.287    497.41481    438.82115   -225.72648    39194.267 
  994500    297.31928   -1437.3998    499.54418    400.38534   -556.86536    39194.267 
  994600    296.80877   -1435.9358     505.7616    405.76899   -313.24897    39194.267 
  994700    305.56683   -1445.6055    501.85699    431.61486    94.261974    39194.267 
  994800    305.44668   -1453.9726    518.47686    439.32687   -2.6299357    39194.267 
  994900      297.249   -1460.2863    516.03065    393.66898    434.73091    39194.267 
  995000    308.73494   -1482.0744    494.02641    401.57513     526.9556    39194.267 
  995100    304.81251     -1481.19    516.33263    407.11081   -82.958993    39194.267 
  995200    294.35298   -1463.5696    533.96026    395.28023     195.1553    39194.267 
  995300    300.68573    -1454.631    486.30449    385.06693   -59.731302    39194.267 
  995400    293.81414   -1404.4313    523.81189     441.8448   -355.18418    39194.267 
  995500    291.91729     -1442.36    512.28442    383.85087   -124.29227    39194.267 
  995600    306.99748    -1452.967    504.36643    433.20221    29.612277    39194.267 
  995700    295.28478   -1425.6357    503.87579    407.32378    401.13955    39194.267 
  995800    302.25421   -1424.2913    537.39273    473.55466    103.23997    39194.267 
  995900    304.65234    -1475.253    500.22649    396.22077   -560.22551    39194.267 
  996000    291.43387   -1449.6716    492.39467    354.47369   -389.50228    39194.267 
  996100    297.64899   -1469.6228    499.07097    369.17319   -443.30879    39194.267 
  996200    296.10068   -1472.1343    515.10487    375.72658   -483.38973    39194.267 
  996300    308.53407   -1497.6636    502.26447    393.31988   -184.23563    39194.267 
  996400    298.00031   -1468.4336    498.97187    371.84464    265.16466    39194.267 
  996500    299.53464   -1508.4013    470.99347    310.80453    154.98926    39194.267 
  996600    303.37891   -1449.9116    516.35123    431.95515    556.17778    39194.267 
  996700    295.51783   -1461.4088    494.39511    363.11887    251.09993    39194.267 
  996800    302.19707   -1485.3482    504.01841    378.86627    244.74626    39194.267 
  996900    309.58074   -1486.8047    490.19288    396.81831   -251.61263    39194.267 
  997000    296.39351   -1520.0474    478.83244    292.85906   -130.81027    39194.267 
  997100    305.05315   -1437.9441    462.01965    397.12687   -402.70676    39194.267 
  997200    303.47589   -1443.3682    520.46434    443.04812   -658.14425    39194.267 
  997300    305.99672   -1433.7634    499.10671    442.64161   -118.28124    39194.267 
  997400    298.15212   -1427.1227    483.61976    398.48671   -657.87242    39194.267 
  997500    301.84931   -1456.1724    509.98823     412.4466   -409.72595    39194.267 
  997600    294.91587   -1437.1592    476.73852    367.00253   -716.29728    39194.267 
  997700    307.55547   -1459.3839    510.99793    435.92834   -26.466348    39194.267 
  997800    298.20484   -1452.8529    486.74799    376.12195    108.38836    39194.267 
  997900    299.86612   -1437.1208    500.80931    413.39285    613.15967    39194.267 
  998000    292.52989   -1420.9652    493.15095    388.86957    461.25334    39194.267 
  998100    296.91819    -1404.365     509.9926    442.06326    288.79117    39194.267 
  998200    307.50549   -1407.6569    502.80564    479.23811    602.88289    39194.267 
  998300    306.21353   -1418.9584     524.8216    484.13736    438.51865    39194.267 
  998400    296.29963   -1392.0588    506.79764    448.39032    498.84682    39194.267 
  998500    302.19701   -1405.2483    499.41553    454.36297    738.92634    39194.267 
  998600    293.18621   -1441.8853    507.60559    385.35825     229.8672    39194.267 
  998700    295.63861    -1366.491    529.34629     493.5315    366.85023    39194.267 
  998800     316.8487   -1409.5884    532.27397    548.82889    369.22278    39194.267 
  998900    299.59276   -1384.5611    510.40781    474.32066    418.82407    39194.267 
  999000     300.2051   -1432.1975    504.17929    423.21196      -179.67    39194.267 
  999100    303.00407   -1411.6552    509.25635    461.42949   -694.11856    39194.267 
  999200    297.77646   -1392.6812     518.8271    466.44462   -701.81435    39194.267 
  999300    299.58829   -1396.0623    526.14567    478.53715    128.90934    39194.267 
  999400    294.74414    -1433.439    487.06873    380.27993   -66.540004    39194.267 
  999500      293.557   -1429.5666     516.0158    407.75604    26.139876    39194.267 
  999600     301.6421     -1422.72    490.34653    425.32464   -92.397876    39194.267 
  999700    301.32908   -1432.2708    514.22769    438.24608    156.42497    39194.267 
  999800    301.56153   -1484.8121    451.69071    324.21405     192.6295    39194.267 
  999900    294.49516   -1499.3322    509.85908    336.05638     171.0403    39194.267 
 1000000    300.02431   -1493.7107    497.40409    354.10979    520.90034    39194.267 
 1000100    302.32978   -1452.0027    485.59105    394.38172    -68.15052    39194.267 
 1000200    307.16528   -1462.6744    512.23711    432.12077   -294.04749    39194.267 
 1000300    298.57308   -1441.9532    470.14083    372.07204   -679.79758    39194.267 
 1000400     295.9336   -1450.7453    511.13938    392.39812   -396.79735    39194.267 
 1000500    307.96962   -1452.3759    495.05483    428.85728    34.525255    39194.267 
 1000600    297.71609    -1430.148    503.23104     413.1101    205.82402    39194.267 
 1000700     289.2029   -1477.1632    479.32457     303.8703    206.17044    39194.267 
 1000800    303.34808   -1403.4196    519.24511    481.20218    547.93509    39194.267 
 1000900    306.29813   -1433.6161    504.64208    449.68096    242.58007    39194.267 
 1001000    306.47188   -1455.9458    484.94914    408.44038    413.87271    39194.267 
 1001100    302.59292   -1401.7252    530.61191     490.8645    178.69206    39194.267 
 1001200    302.06833   -1426.0572    489.99101    423.55033    7.4360749    39194.267 
 1001300    302.63048   -1422.4136    524.18889    463.92212   -66.416085    39194.267 
 1001400    298.25485   -1417.3205    513.76744    438.89894   -166.89216    39194.267 
 1001500    313.54366   -1441.7362    496.40091    465.93195    244.61859    39194.267 
 1001600    303.18432    -1433.318    506.99693    438.31864    747.26263    39194.267 
 1001700    305.19565   -1409.7271    497.74287    461.70849     513.9919    39194.267 
 1001800    297.80452   -1466.1286    503.07811    377.37457    226.16359    39194.267 
 1001900    305.09799   -1448.0338    492.34802    417.56737   -256.45351    39194.267 
 1002000    296.24449   -1448.5429    486.95554    371.81598    199.24289    39194.267 
 1002100     299.8614   -1400.4771    520.76887    469.97488    345.38322    39194.267 
 1002200     300.1827   -1389.2498    509.81218    471.69167     154.0754    39194.267 
 1002300    304.63589   -1434.4292    501.67496    438.41893    698.14066    39194.267 
 1002400    308.00348    -1480.877    516.96708    422.42086    676.23567    39194.267 
 1002500     310.4526   -1457.7871    477.29172    416.85897    554.25671    39194.267 
 1002600    303.21167   -1462.3674    483.74075    386.13614    569.60231    39194.267 
 1002700    298.99715   -1442.7653    501.23282    404.26059    74.516526    39194.267 
 1002800    309.29129   -1452.0654    505.94334    446.00525   -196.16489    39194.267 
 1002900    302.78037   -1468.7854    488.78957    382.82562   -143.34016    39194.267 
 1003000    304.90003   -1470.4796    512.05571    413.93822   -108.60659    39194.267 
 1003100    307.12021   -1482.5928    470.78903    370.55141   -130.66226    39194.267 
 1003200    298.30087    -1489.326    502.80091    356.13402   -891.39839    39194.267 
 1003300    296.18278   -1454.1059    503.17273    382.19242   -725.57908    39194.267 
 1003400    303.38208   -1444.6878    500.32958    421.17154   -126.20324    39194.267 
 1003500    305.43195   -1474.3203    492.42154    392.85755   -321.98015    39194.267 
 1003600    292.57437   -1487.4011    506.30538     335.7883   -450.41875    39194.267 
 1003700    303.93556   -1444.3766    506.01614    429.66051   -274.98718    39194.267 
 1003800    303.38413    -1482.239    467.67206    350.97209    120.17043    39194.267 
 1003900    296.51055   -1450.8868    513.88653    397.60055    53.050532    39194.267 
 1004000    301.21407   -1416.1946    493.95632    433.53321   -169.95145    39194.267 
 1004100    292.21627   -1435.9751    502.08754    381.38462   -429.11929    39194.267 
 1004200    303.70055    -1422.422     499.3543     443.8955    81.694587    39194.267 
 1004300    291.09243   -1442.6062    491.01193    358.61953    3.2111044    39194.267 
 1004400     292.4847   -1446.1715    472.49742    342.80631   -108.91872    39194.267 
 1004500     299.5927   -1398.2949    533.51845    483.69725     51.58645    39194.267 
 1004600    305.74687   -1411.6939     486.6694     451.1492   -110.90621    39194.267 
 1004700    299.58237   -1415.8406    468.06167    400.64829   -286.30944    39194.267 
 1004800    302.63696   -1428.0845    516.81458    450.90607   -585.05773    39194.267 
 1004900    300.22683   -1416.2031    507.37073    442.49552    -435.4503    39194.267 
 1005000    299.99209   -1399.6973     492.6492    443.22325   -699.66391    39194.267 
 1005100    297.30617   -1392.7553    514.21692    459.64363   -125.87362    39194.267 
 1005200    293.94447   -1445.5106    497.76811    375.30842   -457.84549    39194.267 
 1005300    304.76188   -1440.0949    481.21864    412.86397    4.7603023    39194.267 
 1005312    296.18603   -1414.1724    500.24191    419.20975    268.24286    39194.267 
Loop time of 596.644 on 32 procs for 1000000 steps with 1511 atoms

Performance: 144.810 ns/day, 0.166 hours/ns, 1676.040 timesteps/s
100.0% CPU use with 32 MPI tasks x no OpenMP threads

MPI task timing breakdown:
Section |  min time  |  avg time  |  max time  |%varavg| %total
---------------------------------------------------------------
Pair    | 212.93     | 264.22     | 297.35     | 117.7 | 44.28
Bond    | 1.3576     | 1.5482     | 1.6773     |   6.0 |  0.26
Neigh   | 39.203     | 39.27      | 39.337     |   0.7 |  6.58
Comm    | 246.77     | 280.01     | 331.24     | 114.2 | 46.93
Output  | 0.39261    | 0.41014    | 0.86041    |  12.6 |  0.07
Modify  | 8.1513     | 8.4465     | 8.7125     |   4.9 |  1.42
Other   |            | 2.736      |            |       |  0.46

Nlocal:        47.2188 ave          78 max          18 min
Histogram: 1 1 5 2 9 4 4 3 0 3
Nghost:        1927.50 ave        1972 max        1878 min
Histogram: 2 2 2 6 4 3 4 4 1 4
Neighs:        5054.09 ave        9675 max        2099 min
Histogram: 6 2 4 5 6 2 3 1 1 2

Total # of neighbors = 161731
Ave neighs/atom = 107.03574
Ave special neighs/atom = 2.0211780
Neighbor list builds = 49848
Dangerous builds = 0

# Output the system volume
variable v equal vol
print 'The system volume is $v'
The system volume is 39194.2667676891

# Outputs
variable A equal xhi-xlo
variable B equal yhi-ylo
variable C equal zhi-zlo
variable D equal xy
variable E equal xz
variable F equal yz
print 'Lattice vectors'
Lattice vectors
print '$A 0 0'
33.968328860215 0 0
print '$D $B 0'
0 33.968328860215 0
print '$E $F $C'
0 0 33.968328860215
Total wall time: 0:10:01
