LAMMPS data file
 1512 atoms
 1011 bonds
 519 angles
 21 dihedrals
 0 impropers
 4 atom types
 4 bond types
 2 angle types
 2 dihedral types
 1 improper types
 0 15 xlo xhi
 0 15 ylo yhi
 0 15 zlo zhi
 0 0 0 xy xz yz

# Atom types
#
# 1 O_3
# 2 C_3
# 3 H_
# 4 H__HB

# Bond Coeffs
#
# 1 O_3*C_3
# 2 C_3*C_3
# 3 C_3*H_
# 4 O_3*H__HB

# Angle Coeffs
#
# 1 O_3
# 2 C_3

# Dihedral Coeffs
#
# 1 A1
# 2 A2

# Inversion Coeffs
#
# 1 1

 Masses

 1 16
 2 12.01
 3 1.01
 4 1.01

 Atoms # full

1 1 1 0 12.5678615163965 6.2907159709144 9.4766134560029
2 1 2 0 12.7586917404134 7.70893310793222 9.40000811760773
3 1 2 0 11.9057480635541 8.27847433583315 8.24380510177231
4 1 2 0 12.0511029923091 9.80843568198206 8.08801561568014
5 1 3 0 13.8141503867338 7.9251036731279 9.21639441264397
6 1 3 0 12.4509056310085 8.16927999866223 10.3422554689187
7 1 3 0 10.854123002355 8.04069622860492 8.42486777705567
8 1 3 0 12.205918507499 7.79861899515006 7.30843903086751
9 1 3 0 13.0894194459196 10.073287658041 7.87852150373607
10 1 3 0 11.7314268291422 10.316416188668 9.0001155748568
11 1 3 0 11.42968928372 10.1553849634589 7.26039548007423
12 1 4 0 13.0981377607756 5.35769759418957 10.3209089690437
13 2 4 0 6.03031014019623 13.8744428187516 0.559217449044809
14 2 1 0 6.99031014019623 13.8744428187516 0.559217449044809
15 2 4 0 7.23031014019623 12.9444428187516 0.559217449044809
16 3 4 0 8.21944546580315 8.35015872301534 2.10138170979917
17 3 1 0 9.17944546580315 8.35015872301534 2.10138170979917
18 3 4 0 9.41944546580315 7.42015872301534 2.10138170979917
19 4 4 0 6.35183658611029 9.06493227737024 12.5469079124741
20 4 1 0 7.31183658611029 9.06493227737024 12.5469079124741
21 4 4 0 7.55183658611029 8.13493227737025 12.5469079124741
22 5 4 0 12.8682975789718 11.2682822280936 10.6036212283652
23 5 1 0 13.8282975789718 11.2682822280936 10.6036212283652
24 5 4 0 14.0682975789718 10.3382822280936 10.6036212283652
25 6 4 0 5.17921013452113 3.92797751626 14.563569619786
26 6 1 0 6.13921013452113 3.92797751626 14.563569619786
27 6 4 0 6.37921013452113 2.99797751626 14.563569619786
28 7 4 0 0.988516103681177 15.1081740639079 1.28301759716123
29 7 1 0 1.94851610368118 15.1081740639079 1.28301759716123
30 7 4 0 2.18851610368118 14.1781740639079 1.28301759716123
31 8 4 0 -0.161776983439922 10.8253260158841 11.7437075567432
32 8 1 0 0.798223016560078 10.8253260158841 11.7437075567432
33 8 4 0 1.03822301656008 9.89532601588406 11.7437075567432
34 9 4 0 10.9157976675499 14.0398376893159 4.99345461255871
35 9 1 0 11.8757976675499 14.0398376893159 4.99345461255871
36 9 4 0 12.1157976675499 13.1098376893159 4.99345461255871
37 10 4 0 2.87510414069518 13.0488104330748 14.7880149353296
38 10 1 0 3.83510414069518 13.0488104330748 14.7880149353296
39 10 4 0 4.07510414069518 12.1188104330748 14.7880149353296
40 11 4 0 8.02285978381522 0.667854117173702 13.0871260771528
41 11 1 0 8.98285978381522 0.667854117173702 13.0871260771528
42 11 4 0 9.22285978381522 -0.262145882826299 13.0871260771528
43 12 4 0 9.94140991053544 8.94419879577123 8.74794021598063
44 12 1 0 10.9014099105354 8.94419879577123 8.74794021598063
45 12 4 0 11.1414099105354 8.01419879577123 8.74794021598063
46 13 4 0 6.17030568581075 15.1679136095941 4.66670254943892
47 13 1 0 7.13030568581074 15.1679136095941 4.66670254943892
48 13 4 0 7.37030568581075 14.2379136095941 4.66670254943892
49 14 4 0 6.39306820856407 9.05090156867169 0.826689979294315
50 14 1 0 7.35306820856407 9.05090156867169 0.826689979294315
51 14 4 0 7.59306820856407 8.12090156867169 0.826689979294315
52 15 4 0 7.84409667176195 5.2542199349869 10.3211215138435
53 15 1 0 8.80409667176195 5.2542199349869 10.3211215138435
54 15 4 0 9.04409667176195 4.3242199349869 10.3211215138435
55 16 4 0 1.34398470676504 12.3664050332177 0.180775935295969
56 16 1 0 2.30398470676504 12.3664050332177 0.180775935295969
57 16 4 0 2.54398470676504 11.4364050332177 0.180775935295969
58 17 4 0 9.45429323634133 9.85787367256358 2.65132579836063
59 17 1 0 10.4142932363413 9.85787367256358 2.65132579836063
60 17 4 0 10.6542932363413 8.92787367256358 2.65132579836063
61 18 4 0 4.10296864036471 12.9498810232058 5.20211099646986
62 18 1 0 5.06296864036471 12.9498810232058 5.20211099646986
63 18 4 0 5.30296864036471 12.0198810232058 5.20211099646986
64 19 4 0 6.88749571840279 5.51757628371939 9.50735848979093
65 19 1 0 7.84749571840279 5.51757628371939 9.50735848979093
66 19 4 0 8.08749571840279 4.58757628371939 9.50735848979093
67 20 4 0 8.91762947707437 12.0577371671703 14.561825991841
68 20 1 0 9.87762947707437 12.0577371671703 14.561825991841
69 20 4 0 10.1176294770744 11.1277371671703 14.561825991841
70 21 4 0 11.8384138103295 7.79511854908429 9.51933968346566
71 21 1 0 12.7984138103295 7.79511854908429 9.51933968346566
72 21 4 0 13.0384138103295 6.86511854908429 9.51933968346566
73 22 4 0 10.1154966645129 7.3069028502237 4.79453895357437
74 22 1 0 11.0754966645129 7.3069028502237 4.79453895357437
75 22 4 0 11.3154966645129 6.37690285022371 4.79453895357437
76 23 4 0 8.20297815182246 1.12304017920047 4.15362670901231
77 23 1 0 9.16297815182246 1.12304017920047 4.15362670901231
78 23 4 0 9.40297815182246 0.19304017920047 4.15362670901231
79 24 4 0 2.06838677681051 12.590342807062 3.49442802253179
80 24 1 0 3.02838677681051 12.590342807062 3.49442802253179
81 24 4 0 3.26838677681051 11.660342807062 3.49442802253179
82 25 4 0 5.26220572806895 6.46852690883912 2.27907620603219
83 25 1 0 6.22220572806895 6.46852690883912 2.27907620603219
84 25 4 0 6.46220572806895 5.53852690883912 2.27907620603219
85 26 4 0 6.37475871291943 2.35883412690833 11.862407483859
86 26 1 0 7.33475871291943 2.35883412690833 11.862407483859
87 26 4 0 7.57475871291943 1.42883412690833 11.862407483859
88 27 4 0 12.5183585942443 10.0366909107566 10.4500161018223
89 27 1 0 13.4783585942443 10.0366909107566 10.4500161018223
90 27 4 0 13.7183585942443 9.10669091075659 10.4500161018223
91 28 4 0 12.0038250535447 2.1618412031699 5.56932601262815
92 28 1 0 12.9638250535447 2.1618412031699 5.56932601262815
93 28 4 0 13.2038250535447 1.2318412031699 5.56932601262815
94 29 4 0 8.7245992866531 8.94931185449474 3.99725119932555
95 29 1 0 9.6845992866531 8.94931185449474 3.99725119932555
96 29 4 0 9.9245992866531 8.01931185449474 3.99725119932555
97 30 4 0 6.55132038795389 7.10420676082373 10.1491093612276
98 30 1 0 7.51132038795389 7.10420676082373 10.1491093612276
99 30 4 0 7.75132038795389 6.17420676082373 10.1491093612276
100 31 4 0 12.3521012991853 15.2800816278346 0.288273026235402
101 31 1 0 13.3121012991853 15.2800816278346 0.288273026235402
102 31 4 0 13.5521012991853 14.3500816278346 0.288273026235402
103 32 4 0 13.935947269639 2.77648920467123 2.89533393108286
104 32 1 0 14.895947269639 2.77648920467123 2.89533393108286
105 32 4 0 15.135947269639 1.84648920467123 2.89533393108286
106 33 4 0 3.88460605099797 4.83132181962952 10.035495988559
107 33 1 0 4.84460605099797 4.83132181962952 10.035495988559
108 33 4 0 5.08460605099797 3.90132181962952 10.035495988559
109 34 4 0 10.0531030939613 11.7103846317064 14.7108717961237
110 34 1 0 11.0131030939613 11.7103846317064 14.7108717961237
111 34 4 0 11.2531030939613 10.7803846317064 14.7108717961237
112 35 4 0 8.47734457042068 4.52297267894261 8.16583697218448
113 35 1 0 9.43734457042068 4.52297267894261 8.16583697218448
114 35 4 0 9.67734457042068 3.59297267894261 8.16583697218448
115 36 4 0 2.75401961800642 12.2154444215726 11.9063291733619
116 36 1 0 3.71401961800642 12.2154444215726 11.9063291733619
117 36 4 0 3.95401961800642 11.2854444215726 11.9063291733619
118 37 4 0 10.8024732435308 5.70092298364267 13.2943354966119
119 37 1 0 11.7624732435308 5.70092298364267 13.2943354966119
120 37 4 0 12.0024732435308 4.77092298364267 13.2943354966119
121 38 4 0 7.05789687621407 1.45350602612831 6.75528253312223
122 38 1 0 8.01789687621407 1.45350602612831 6.75528253312223
123 38 4 0 8.25789687621407 0.523506026128307 6.75528253312223
124 39 4 0 8.97333253568038 1.45994225208648 0.890839583007619
125 39 1 0 9.93333253568038 1.45994225208648 0.890839583007619
126 39 4 0 10.1733325356804 0.529942252086475 0.890839583007619
127 40 4 0 12.1361246255413 5.13206208514981 2.65388019382954
128 40 1 0 13.0961246255413 5.13206208514981 2.65388019382954
129 40 4 0 13.3361246255413 4.20206208514981 2.65388019382954
130 41 4 0 8.39742543918081 8.11719691189006 1.79487138404511
131 41 1 0 9.35742543918081 8.11719691189006 1.79487138404511
132 41 4 0 9.59742543918081 7.18719691189006 1.79487138404511
133 42 4 0 9.63804497776553 3.14586455858313 12.9561217152514
134 42 1 0 10.5980449777655 3.14586455858313 12.9561217152514
135 42 4 0 10.8380449777655 2.21586455858313 12.9561217152514
136 43 4 0 10.7680342909601 7.92283813393675 10.3160453774035
137 43 1 0 11.7280342909601 7.92283813393675 10.3160453774035
138 43 4 0 11.9680342909601 6.99283813393675 10.3160453774035
139 44 4 0 14.1088425430655 4.67038842308335 14.0735540993046
140 44 1 0 15.0688425430655 4.67038842308335 14.0735540993046
141 44 4 0 15.3088425430655 3.74038842308335 14.0735540993046
142 45 4 0 8.60134087895974 8.8336657585483 11.0387165669817
143 45 1 0 9.56134087895975 8.8336657585483 11.0387165669817
144 45 4 0 9.80134087895975 7.9036657585483 11.0387165669817
145 46 4 0 8.54182121504098 4.69654517522082 3.29855237156153
146 46 1 0 9.50182121504098 4.69654517522082 3.29855237156153
147 46 4 0 9.74182121504098 3.76654517522082 3.29855237156153
148 47 4 0 7.83060832807794 13.711166498661 8.99525868357159
149 47 1 0 8.79060832807794 13.711166498661 8.99525868357159
150 47 4 0 9.03060832807794 12.781166498661 8.99525868357159
151 48 4 0 7.18211022365838 9.34583888197318 2.20859307213686
152 48 1 0 8.14211022365838 9.34583888197318 2.20859307213686
153 48 4 0 8.38211022365838 8.41583888197318 2.20859307213686
154 49 4 0 6.81136517945677 15.2698574975971 3.73144963989034
155 49 1 0 7.77136517945677 15.2698574975971 3.73144963989034
156 49 4 0 8.01136517945677 14.3398574975971 3.73144963989034
157 50 4 0 0.601255221264437 2.56683151162229 8.38277037371881
158 50 1 0 1.56125522126444 2.56683151162229 8.38277037371881
159 50 4 0 1.80125522126444 1.63683151162229 8.38277037371881
160 51 4 0 7.6292862037383 9.00996777269989 2.40590416593477
161 51 1 0 8.5892862037383 9.00996777269989 2.40590416593477
162 51 4 0 8.8292862037383 8.07996777269989 2.40590416593477
163 52 4 0 5.22083060743287 0.618078530943021 1.74390300409868
164 52 1 0 6.18083060743287 0.618078530943021 1.74390300409868
165 52 4 0 6.42083060743287 -0.311921469056979 1.74390300409868
166 53 4 0 13.1313324223459 4.08154135494493 7.53213992924429
167 53 1 0 14.0913324223459 4.08154135494493 7.53213992924429
168 53 4 0 14.3313324223459 3.15154135494493 7.53213992924429
169 54 4 0 7.25742196940817 3.39718749438412 4.65806610533036
170 54 1 0 8.21742196940817 3.39718749438412 4.65806610533036
171 54 4 0 8.45742196940817 2.46718749438412 4.65806610533036
172 55 4 0 11.1581760090496 12.7756737269834 0.001315763220191
173 55 1 0 12.1181760090496 12.7756737269834 0.001315763220191
174 55 4 0 12.3581760090496 11.8456737269834 0.001315763220191
175 56 4 0 11.1928371379338 5.57449628639966 9.70537485089153
176 56 1 0 12.1528371379338 5.57449628639966 9.70537485089153
177 56 4 0 12.3928371379338 4.64449628639966 9.70537485089153
178 57 4 0 3.5002382942196 4.5858499935735 10.3522552584764
179 57 1 0 4.4602382942196 4.5858499935735 10.3522552584764
180 57 4 0 4.7002382942196 3.6558499935735 10.3522552584764
181 58 4 0 10.8437544065248 5.86595460697077 12.3544809990562
182 58 1 0 11.8037544065248 5.86595460697077 12.3544809990562
183 58 4 0 12.0437544065248 4.93595460697077 12.3544809990562
184 59 4 0 11.9202666012291 9.30395347805694 3.62051870324649
185 59 1 0 12.8802666012291 9.30395347805694 3.62051870324649
186 59 4 0 13.1202666012291 8.37395347805694 3.62051870324649
187 60 4 0 3.14755821760744 10.3486679067742 6.79783332394436
188 60 1 0 4.10755821760744 10.3486679067742 6.79783332394436
189 60 4 0 4.34755821760744 9.41866790677421 6.79783332394436
190 61 4 0 9.75770908218808 2.47490015620366 8.94126044469886
191 61 1 0 10.7177090821881 2.47490015620366 8.94126044469886
192 61 4 0 10.9577090821881 1.54490015620366 8.94126044469886
193 62 4 0 10.3492589578684 7.36104692024179 6.95124650141224
194 62 1 0 11.3092589578684 7.36104692024179 6.95124650141224
195 62 4 0 11.5492589578684 6.43104692024179 6.95124650141224
196 63 4 0 1.27548590462655 11.428730888702 5.41614313493483
197 63 1 0 2.23548590462655 11.428730888702 5.41614313493483
198 63 4 0 2.47548590462655 10.498730888702 5.41614313493483
199 64 4 0 13.2723302934039 12.6118416552804 1.97404551669024
200 64 1 0 14.2323302934039 12.6118416552804 1.97404551669024
201 64 4 0 14.4723302934039 11.6818416552804 1.97404551669024
202 65 4 0 4.03798586499877 6.46176268853247 4.86153601203114
203 65 1 0 4.99798586499877 6.46176268853247 4.86153601203114
204 65 4 0 5.23798586499877 5.53176268853247 4.86153601203114
205 66 4 0 4.76249558662064 13.0174338996317 9.63942685048096
206 66 1 0 5.72249558662064 13.0174338996317 9.63942685048096
207 66 4 0 5.96249558662064 12.0874338996317 9.63942685048096
208 67 4 0 9.79070451037958 11.7581564401649 8.47048596013337
209 67 1 0 10.7507045103796 11.7581564401649 8.47048596013337
210 67 4 0 10.9907045103796 10.8281564401649 8.47048596013337
211 68 4 0 12.083699048236 1.01945070357993 2.16651458409615
212 68 1 0 13.043699048236 1.01945070357993 2.16651458409615
213 68 4 0 13.283699048236 0.0894507035799324 2.16651458409615
214 69 4 0 12.2965563826449 4.31122273014858 11.7330742010381
215 69 1 0 13.2565563826449 4.31122273014858 11.7330742010381
216 69 4 0 13.4965563826449 3.38122273014858 11.7330742010381
217 70 4 0 7.27250920652412 5.24794566486031 10.2529494382907
218 70 1 0 8.23250920652412 5.24794566486031 10.2529494382907
219 70 4 0 8.47250920652412 4.31794566486031 10.2529494382907
220 71 4 0 1.44793457628228 5.02620284602977 8.86017336859368
221 71 1 0 2.40793457628228 5.02620284602977 8.86017336859368
222 71 4 0 2.64793457628228 4.09620284602977 8.86017336859368
223 72 4 0 11.2920691414922 10.0587244335935 2.17371621401981
224 72 1 0 12.2520691414922 10.0587244335935 2.17371621401981
225 72 4 0 12.4920691414922 9.12872443359345 2.17371621401981
226 73 4 0 5.45124675074592 12.0234804301895 12.1260017005261
227 73 1 0 6.41124675074592 12.0234804301895 12.1260017005261
228 73 4 0 6.65124675074592 11.0934804301895 12.1260017005261
229 74 4 0 10.9736340148095 2.25642208167352 2.33439911738969
230 74 1 0 11.9336340148095 2.25642208167352 2.33439911738969
231 74 4 0 12.1736340148095 1.32642208167352 2.33439911738969
232 75 4 0 13.8877477186918 0.323219305546954 3.81593795260414
233 75 1 0 14.8477477186918 0.323219305546954 3.81593795260414
234 75 4 0 15.0877477186918 -0.606780694453046 3.81593795260414
235 76 4 0 5.33320223956369 0.319665825637057 14.6679260150995
236 76 1 0 6.29320223956369 0.319665825637057 14.6679260150995
237 76 4 0 6.53320223956369 -0.610334174362943 14.6679260150995
238 77 4 0 13.8822483869456 7.2296955265943 7.46294048032723
239 77 1 0 14.8422483869456 7.2296955265943 7.46294048032723
240 77 4 0 15.0822483869456 6.2996955265943 7.46294048032723
241 78 4 0 12.9751896047685 9.62033369386569 11.2615774478763
242 78 1 0 13.9351896047685 9.62033369386569 11.2615774478763
243 78 4 0 14.1751896047685 8.69033369386569 11.2615774478763
244 79 4 0 7.75778420196846 4.32886668172665 1.87315176590346
245 79 1 0 8.71778420196846 4.32886668172665 1.87315176590346
246 79 4 0 8.95778420196846 3.39886668172665 1.87315176590346
247 80 4 0 13.8519568210188 13.523106947951 5.8832942834124
248 80 1 0 14.8119568210188 13.523106947951 5.8832942834124
249 80 4 0 15.0519568210188 12.593106947951 5.8832942834124
250 81 4 0 12.9167630772293 1.16172917926684 14.449757616967
251 81 1 0 13.8767630772293 1.16172917926684 14.449757616967
252 81 4 0 14.1167630772293 0.23172917926684 14.449757616967
253 82 4 0 2.65236736086197 9.97701459954493 4.95413528289646
254 82 1 0 3.61236736086197 9.97701459954493 4.95413528289646
255 82 4 0 3.85236736086197 9.04701459954493 4.95413528289646
256 83 4 0 -0.280218880651519 9.89004221902229 5.68789960001595
257 83 1 0 0.679781119348481 9.89004221902229 5.68789960001595
258 83 4 0 0.919781119348481 8.96004221902229 5.68789960001595
259 84 4 0 7.80274264558218 6.28220211522654 9.84637840767391
260 84 1 0 8.76274264558218 6.28220211522654 9.84637840767391
261 84 4 0 9.00274264558218 5.35220211522654 9.84637840767391
262 85 4 0 12.7382045779098 2.97292260494083 13.4656353271566
263 85 1 0 13.6982045779098 2.97292260494083 13.4656353271566
264 85 4 0 13.9382045779098 2.04292260494083 13.4656353271566
265 86 4 0 0.0466619110386819 9.90308263380081 0.979470965685323
266 86 1 0 1.00666191103868 9.90308263380081 0.979470965685323
267 86 4 0 1.24666191103868 8.97308263380081 0.979470965685323
268 87 4 0 8.61024513185956 10.2667683727946 6.1525743920356
269 87 1 0 9.57024513185956 10.2667683727946 6.1525743920356
270 87 4 0 9.81024513185956 9.33676837279461 6.1525743920356
271 88 4 0 7.64262930650264 13.6052434488107 11.9378978968598
272 88 1 0 8.60262930650264 13.6052434488107 11.9378978968598
273 88 4 0 8.84262930650264 12.6752434488107 11.9378978968598
274 89 4 0 12.0106769101415 5.44053551898338 14.4786378205754
275 89 1 0 12.9706769101415 5.44053551898338 14.4786378205754
276 89 4 0 13.2106769101415 4.51053551898338 14.4786378205754
277 90 4 0 13.2878591415659 6.87679485924542 13.1437042064499
278 90 1 0 14.2478591415659 6.87679485924542 13.1437042064499
279 90 4 0 14.4878591415659 5.94679485924542 13.1437042064499
280 91 4 0 9.86390912250616 4.32992622762918 13.589852352161
281 91 1 0 10.8239091225062 4.32992622762918 13.589852352161
282 91 4 0 11.0639091225062 3.39992622762918 13.589852352161
283 92 4 0 -0.592151665622368 0.773785548927262 6.0446693119593
284 92 1 0 0.367848334377632 0.773785548927262 6.0446693119593
285 92 4 0 0.607848334377632 -0.156214451072738 6.0446693119593
286 93 4 0 7.26162435879931 14.9317568335123 3.45457950839773
287 93 1 0 8.22162435879931 14.9317568335123 3.45457950839773
288 93 4 0 8.46162435879931 14.0017568335123 3.45457950839773
289 94 4 0 5.5232004197035 11.5522767432872 6.49087244644761
290 94 1 0 6.4832004197035 11.5522767432872 6.49087244644761
291 94 4 0 6.7232004197035 10.6222767432872 6.49087244644761
292 95 4 0 11.9362832272612 14.9212361585256 12.1738678752445
293 95 1 0 12.8962832272612 14.9212361585256 12.1738678752445
294 95 4 0 13.1362832272612 13.9912361585256 12.1738678752445
295 96 4 0 10.2195661053713 5.79419115832075 12.785318515962
296 96 1 0 11.1795661053713 5.79419115832075 12.785318515962
297 96 4 0 11.4195661053713 4.86419115832075 12.785318515962
298 97 4 0 4.59545192236081 2.19909089425579 12.9247653647326
299 97 1 0 5.55545192236081 2.19909089425579 12.9247653647326
300 97 4 0 5.79545192236081 1.26909089425579 12.9247653647326
301 98 4 0 10.5561979736388 0.579915505778045 13.2341882656328
302 98 1 0 11.5161979736388 0.579915505778045 13.2341882656328
303 98 4 0 11.7561979736388 -0.350084494221956 13.2341882656328
304 99 4 0 3.79873148325831 10.9095787342545 6.73920577391982
305 99 1 0 4.75873148325831 10.9095787342545 6.73920577391982
306 99 4 0 4.99873148325831 9.97957873425447 6.73920577391982
307 100 4 0 1.2813227860909 6.26211022533476 0.10358054889366
308 100 1 0 2.2413227860909 6.26211022533476 0.10358054889366
309 100 4 0 2.4813227860909 5.33211022533476 0.10358054889366
310 101 4 0 -0.450500523000956 15.0759938281868 11.3215234712698
311 101 1 0 0.509499476999044 15.0759938281868 11.3215234712698
312 101 4 0 0.749499476999044 14.1459938281868 11.3215234712698
313 102 4 0 4.13650570713915 6.36373965925537 4.80054392013699
314 102 1 0 5.09650570713915 6.36373965925537 4.80054392013699
315 102 4 0 5.33650570713915 5.43373965925537 4.80054392013699
316 103 4 0 12.2427052007709 9.92197450058535 13.4105257387273
317 103 1 0 13.2027052007709 9.92197450058535 13.4105257387273
318 103 4 0 13.4427052007709 8.99197450058535 13.4105257387273
319 104 4 0 11.4958913535532 9.10654753953219 10.5515578191262
320 104 1 0 12.4558913535532 9.10654753953219 10.5515578191262
321 104 4 0 12.6958913535532 8.17654753953219 10.5515578191262
322 105 4 0 8.24506345714442 0.956863842848688 0.419322800589725
323 105 1 0 9.20506345714442 0.956863842848688 0.419322800589725
324 105 4 0 9.44506345714442 0.0268638428486883 0.419322800589725
325 106 4 0 13.4076528371964 2.64912630472332 12.0602077071089
326 106 1 0 14.3676528371964 2.64912630472332 12.0602077071089
327 106 4 0 14.6076528371964 1.71912630472332 12.0602077071089
328 107 4 0 4.08603666510433 13.6454061550926 4.0740703814663
329 107 1 0 5.04603666510433 13.6454061550926 4.0740703814663
330 107 4 0 5.28603666510433 12.7154061550926 4.0740703814663
331 108 4 0 2.77077139981091 8.51021654246375 11.6419512836728
332 108 1 0 3.73077139981091 8.51021654246375 11.6419512836728
333 108 4 0 3.97077139981091 7.58021654246375 11.6419512836728
334 109 4 0 0.345709555987269 13.7268498637155 12.1362069121096
335 109 1 0 1.30570955598727 13.7268498637155 12.1362069121096
336 109 4 0 1.54570955598727 12.7968498637155 12.1362069121096
337 110 4 0 7.36570996276103 4.61987837607972 3.22440737625584
338 110 1 0 8.32570996276103 4.61987837607972 3.22440737625584
339 110 4 0 8.56570996276103 3.68987837607972 3.22440737625584
340 111 4 0 4.83403561214916 5.89135451865382 4.54052367713302
341 111 1 0 5.79403561214916 5.89135451865382 4.54052367713302
342 111 4 0 6.03403561214916 4.96135451865382 4.54052367713302
343 112 4 0 -0.157606459250674 13.1617588763498 11.7561255209148
344 112 1 0 0.802393540749326 13.1617588763498 11.7561255209148
345 112 4 0 1.04239354074933 12.2317588763498 11.7561255209148
346 113 4 0 5.79784147485159 1.39101092278957 2.67819762811996
347 113 1 0 6.75784147485159 1.39101092278957 2.67819762811996
348 113 4 0 6.99784147485159 0.461010922789574 2.67819762811996
349 114 4 0 5.19000482090749 3.64027662825771 5.30794181395322
350 114 1 0 6.15000482090749 3.64027662825771 5.30794181395322
351 114 4 0 6.39000482090749 2.71027662825771 5.30794181395322
352 115 4 0 2.36909442974255 7.89680032449774 3.99643731652759
353 115 1 0 3.32909442974255 7.89680032449774 3.99643731652759
354 115 4 0 3.56909442974255 6.96680032449774 3.99643731652759
355 116 4 0 3.22940863712691 10.5454928920977 7.16678336262703
356 116 1 0 4.18940863712691 10.5454928920977 7.16678336262703
357 116 4 0 4.42940863712691 9.61549289209768 7.16678336262703
358 117 4 0 1.2320356238354 11.8434625472315 2.33369358815253
359 117 1 0 2.1920356238354 11.8434625472315 2.33369358815253
360 117 4 0 2.4320356238354 10.9134625472315 2.33369358815253
361 118 4 0 4.94610826528631 11.0136497746594 2.22536544548348
362 118 1 0 5.90610826528631 11.0136497746594 2.22536544548348
363 118 4 0 6.14610826528631 10.0836497746594 2.22536544548348
364 119 4 0 12.1115264149569 1.95536995347589 7.82480070367455
365 119 1 0 13.0715264149569 1.95536995347589 7.82480070367455
366 119 4 0 13.3115264149569 1.02536995347589 7.82480070367455
367 120 4 0 6.69702389088459 10.2623212737404 12.6565400976688
368 120 1 0 7.65702389088459 10.2623212737404 12.6565400976688
369 120 4 0 7.89702389088459 9.33232127374038 12.6565400976688
370 121 4 0 2.34670548277907 8.86226252111606 3.12501915846951
371 121 1 0 3.30670548277907 8.86226252111606 3.12501915846951
372 121 4 0 3.54670548277907 7.93226252111606 3.12501915846951
373 122 4 0 4.17748057792895 12.3473315690085 10.5070977145806
374 122 1 0 5.13748057792895 12.3473315690085 10.5070977145806
375 122 4 0 5.37748057792895 11.4173315690085 10.5070977145806
376 123 4 0 1.46921548803337 7.87481809192337 3.6287790723145
377 123 1 0 2.42921548803337 7.87481809192337 3.6287790723145
378 123 4 0 2.66921548803337 6.94481809192337 3.6287790723145
379 124 4 0 12.0918799673393 7.12473608128726 1.93509194534272
380 124 1 0 13.0518799673393 7.12473608128726 1.93509194534272
381 124 4 0 13.2918799673393 6.19473608128726 1.93509194534272
382 125 4 0 7.51248409316875 12.8227100828104 0.516631359932944
383 125 1 0 8.47248409316875 12.8227100828104 0.516631359932944
384 125 4 0 8.71248409316875 11.8927100828104 0.516631359932944
385 126 4 0 8.85643903442658 4.01241212542169 5.66503397072665
386 126 1 0 9.81643903442659 4.01241212542169 5.66503397072665
387 126 4 0 10.0564390344266 3.08241212542169 5.66503397072665
388 127 4 0 12.4036820714548 14.3733383265231 11.9150703214109
389 127 1 0 13.3636820714548 14.3733383265231 11.9150703214109
390 127 4 0 13.6036820714548 13.4433383265231 11.9150703214109
391 128 4 0 5.0195268289838 7.0722033378575 8.69367194012739
392 128 1 0 5.9795268289838 7.0722033378575 8.69367194012739
393 128 4 0 6.2195268289838 6.1422033378575 8.69367194012739
394 129 4 0 11.270210817894 7.43170169455931 0.618107810150832
395 129 1 0 12.230210817894 7.43170169455931 0.618107810150832
396 129 4 0 12.470210817894 6.50170169455931 0.618107810150832
397 130 4 0 12.8930545916967 12.0420457729511 8.67062944918871
398 130 1 0 13.8530545916967 12.0420457729511 8.67062944918871
399 130 4 0 14.0930545916967 11.1120457729511 8.67062944918871
400 131 4 0 2.53311686145142 13.4418429054227 10.3904304408934
401 131 1 0 3.49311686145142 13.4418429054227 10.3904304408934
402 131 4 0 3.73311686145142 12.5118429054227 10.3904304408934
403 132 4 0 5.80162208338268 6.21432045864873 4.46214549941942
404 132 1 0 6.76162208338268 6.21432045864873 4.46214549941942
405 132 4 0 7.00162208338268 5.28432045864873 4.46214549941942
406 133 4 0 12.9542598423734 7.30798273621127 12.3706191871315
407 133 1 0 13.9142598423734 7.30798273621127 12.3706191871315
408 133 4 0 14.1542598423734 6.37798273621127 12.3706191871315
409 134 4 0 10.8590629922412 15.1049450125452 4.69245617394336
410 134 1 0 11.8190629922412 15.1049450125452 4.69245617394336
411 134 4 0 12.0590629922412 14.1749450125452 4.69245617394336
412 135 4 0 5.43159567911178 13.8554501735512 13.7033259740565
413 135 1 0 6.39159567911178 13.8554501735512 13.7033259740565
414 135 4 0 6.63159567911178 12.9254501735512 13.7033259740565
415 136 4 0 2.62714101045392 12.0335743859783 5.06386149208993
416 136 1 0 3.58714101045392 12.0335743859783 5.06386149208993
417 136 4 0 3.82714101045392 11.1035743859783 5.06386149208993
418 137 4 0 5.68076434006915 9.01612066239119 13.3518212113995
419 137 1 0 6.64076434006915 9.01612066239119 13.3518212113995
420 137 4 0 6.88076434006915 8.08612066239119 13.3518212113995
421 138 4 0 12.7858360069524 11.7632191306353 2.93201971217059
422 138 1 0 13.7458360069524 11.7632191306353 2.93201971217059
423 138 4 0 13.9858360069525 10.8332191306353 2.93201971217059
424 139 4 0 -0.401763370754197 2.831363083506 2.7330384333618
425 139 1 0 0.558236629245803 2.831363083506 2.7330384333618
426 139 4 0 0.798236629245803 1.901363083506 2.7330384333618
427 140 4 0 2.27819828476757 12.5352922446933 7.00274507864378
428 140 1 0 3.23819828476757 12.5352922446933 7.00274507864378
429 140 4 0 3.47819828476757 11.6052922446933 7.00274507864378
430 141 4 0 2.94772337118164 12.2412637008261 4.39552747062407
431 141 1 0 3.90772337118164 12.2412637008261 4.39552747062407
432 141 4 0 4.14772337118164 11.3112637008261 4.39552747062407
433 142 4 0 8.68004501491785 11.626260456806 4.77266432368197
434 142 1 0 9.64004501491785 11.626260456806 4.77266432368197
435 142 4 0 9.88004501491785 10.696260456806 4.77266432368197
436 143 4 0 1.60565642916597 2.14011278160848 5.69384668255225
437 143 1 0 2.56565642916597 2.14011278160848 5.69384668255225
438 143 4 0 2.80565642916597 1.21011278160848 5.69384668255225
439 144 4 0 9.0229236327298 5.80002437270246 6.68527242843993
440 144 1 0 9.9829236327298 5.80002437270246 6.68527242843993
441 144 4 0 10.2229236327298 4.87002437270246 6.68527242843993
442 145 4 0 7.57511552117765 6.89111169817857 6.02011203649454
443 145 1 0 8.53511552117765 6.89111169817857 6.02011203649454
444 145 4 0 8.77511552117765 5.96111169817857 6.02011203649454
445 146 4 0 13.2683458404802 15.22712946794 6.83091995771974
446 146 1 0 14.2283458404802 15.22712946794 6.83091995771974
447 146 4 0 14.4683458404802 14.29712946794 6.83091995771974
448 147 4 0 6.58599177768454 15.2250703696068 10.1361461647321
449 147 1 0 7.54599177768454 15.2250703696068 10.1361461647321
450 147 4 0 7.78599177768454 14.2950703696068 10.1361461647321
451 148 4 0 4.23254424749874 0.548383606774733 3.60252440557815
452 148 1 0 5.19254424749874 0.548383606774733 3.60252440557815
453 148 4 0 5.43254424749874 -0.381616393225268 3.60252440557815
454 149 4 0 -0.488343537580222 6.08339934650809 10.3579047939274
455 149 1 0 0.471656462419778 6.08339934650809 10.3579047939274
456 149 4 0 0.711656462419778 5.15339934650809 10.3579047939274
457 150 4 0 0.989523206809536 7.49553548911586 3.43826717231423
458 150 1 0 1.94952320680954 7.49553548911586 3.43826717231423
459 150 4 0 2.18952320680954 6.56553548911586 3.43826717231423
460 151 4 0 10.1615336530097 8.74212462263182 5.92194335069507
461 151 1 0 11.1215336530097 8.74212462263182 5.92194335069507
462 151 4 0 11.3615336530097 7.81212462263182 5.92194335069507
463 152 4 0 1.10784632197581 12.3022970770858 10.2424003521446
464 152 1 0 2.06784632197581 12.3022970770858 10.2424003521446
465 152 4 0 2.30784632197581 11.3722970770858 10.2424003521446
466 153 4 0 14.0946692616865 2.34086519497447 7.56628427188843
467 153 1 0 15.0546692616865 2.34086519497447 7.56628427188843
468 153 4 0 15.2946692616865 1.41086519497447 7.56628427188843
469 154 4 0 4.13837217886001 13.1235157132056 12.0823758363258
470 154 1 0 5.09837217886001 13.1235157132056 12.0823758363258
471 154 4 0 5.33837217886001 12.1935157132056 12.0823758363258
472 155 4 0 14.0575599430315 5.0015080724284 5.02383461804129
473 155 1 0 15.0175599430315 5.0015080724284 5.02383461804129
474 155 4 0 15.2575599430315 4.07150807242841 5.02383461804129
475 156 4 0 -0.192732172580436 5.66083465976641 14.7092079883441
476 156 1 0 0.767267827419564 5.66083465976641 14.7092079883441