LAMMPS (29 Sep 2021 - Update 1)
Reading data file ...
  triclinic box = (0.0000000 0.0000000 0.0000000) to (15.000000 15.000000 15.000000) with tilt (0.0000000 0.0000000 0.0000000)
  2 by 4 by 4 MPI processor grid
  reading atoms ...
  1512 atoms
  scanning bonds ...
  3 = max bonds/atom
  scanning angles ...
  6 = max angles/atom
  scanning dihedrals ...
  9 = max dihedrals/atom
  reading bonds ...
  1011 bonds
  reading angles ...
  519 angles
  reading dihedrals ...
  21 dihedrals
Finding 1-2 1-3 1-4 neighbors ...
  special bond factors lj:    0        0        1       
  special bond factors coul:  0        0        1       
     4 = max # of 1-2 neighbors
     6 = max # of 1-3 neighbors
    10 = max # of special neighbors
  special bonds CPU = 0.002 seconds
  read_data CPU = 0.016 seconds
WARNING: Using 'neigh_modify every 1 delay 0 check yes' setting during minimization (../min.cpp:188)
Neighbor list info ...
  update every 1 steps, delay 0 steps, check yes
  max neighbors/atom: 10000, page size: 100000
  master list distance cutoff = 13
  ghost atom cutoff = 13
  binsize = 6.5, bins = 3 3 3
  3 neighbor lists, perpetual/occasional/extra = 3 0 0
  (1) pair hbond/dreiding/lj, perpetual, skip from (3)
      attributes: full, newton on
      pair build: skip
      stencil: none
      bin: none
  (2) pair lj/cut, perpetual, half/full from (3)
      attributes: half, newton on
      pair build: halffull/newton
      stencil: none
      bin: none
  (3) neighbor class addition, perpetual
      attributes: full, newton on
      pair build: full/bin
      stencil: full/bin/3d
      bin: standard
Setting up cg style minimization ...
  Unit style    : real
  Current step  : 0
WARNING: Energy due to 1 extra global DOFs will be included in minimizer energies
Per MPI rank memory allocation (min/avg/max) = 14.02 | 14.38 | 14.82 Mbytes
Step Temp E_pair E_mol TotEng Press Volume 
       0            0 1.7737224e+17    206.07199 1.7737224e+17 1.441438e+19         3375 
    5728            0   -1178.0892    31.775956   -1146.3133    60.682494    39893.952 
Loop time of 4.81285 on 32 procs for 5728 steps with 1512 atoms

100.0% CPU use with 32 MPI tasks x no OpenMP threads

Minimization stats:
  Stopping criterion = energy tolerance
  Energy initial, next-to-last, final = 
    1.77372238326644e+17  -1145.68516761622  -1145.78066557029
  Force two-norm initial, final = 1.5365492e+19 82.515770
  Force max component initial, final = 7.4468900e+18 45.730583
  Final line search alpha, max atom move = 1.0186559e-05 0.00046583729
  Iterations, force evaluations = 5728 5728

MPI task timing breakdown:
Section |  min time  |  avg time  |  max time  |%varavg| %total
---------------------------------------------------------------
Pair    | 1.2868     | 2.4963     | 3.9505     |  42.0 | 51.87
Bond    | 0.0067824  | 0.011883   | 0.023664   |   2.9 |  0.25
Neigh   | 0.10622    | 0.1065     | 0.1067     |   0.0 |  2.21
Comm    | 0.38192    | 1.837      | 3.0432     |  48.9 | 38.17
Output  | 0          | 0          | 0          |   0.0 |  0.00
Modify  | 0          | 0          | 0          |   0.0 |  0.00
Other   |            | 0.3612     |            |       |  7.50

Nlocal:        47.2500 ave          74 max          26 min
Histogram: 2 2 7 3 3 6 7 0 1 1
Nghost:        1893.31 ave        1929 max        1861 min
Histogram: 2 4 5 4 4 3 2 2 3 3
Neighs:        4740.84 ave        8336 max        2345 min
Histogram: 3 4 4 3 7 6 3 1 0 1

Total # of neighbors = 151707
Ave neighs/atom = 100.33532
Ave special neighs/atom = 2.0238095
Neighbor list builds = 104
Dangerous builds = 0
1500 atoms in group WAT
12 atoms in group MOL
Neighbor list info ...
  update every 2 steps, delay 10 steps, check yes
  max neighbors/atom: 10000, page size: 100000
  master list distance cutoff = 13
  ghost atom cutoff = 13
  binsize = 6.5, bins = 6 6 6
  4 neighbor lists, perpetual/occasional/extra = 3 1 0
  (1) pair hbond/dreiding/lj, perpetual, skip from (4)
      attributes: full, newton on
      pair build: skip
      stencil: none
      bin: none
  (2) pair lj/cut, perpetual, half/full from (4)
      attributes: half, newton on
      pair build: halffull/newton
      stencil: none
      bin: none
  (3) compute group/group, occasional, copy from (2)
      attributes: half, newton on
      pair build: copy
      stencil: none
      bin: none
  (4) neighbor class addition, perpetual
      attributes: full, newton on
      pair build: full/bin
      stencil: full/bin/3d
      bin: standard
Setting up Verlet run ...
  Unit style    : real
  Current step  : 5728
  Time step     : 1
Per MPI rank memory allocation (min/avg/max) = 12.87 | 12.92 | 13.23 Mbytes
Step Temp E_pair E_mol TotEng Press Volume 
    5728          300   -1178.0892    31.775956    204.88794    1608.9493    39893.952 
    5800    304.88403   -1141.3201    153.59412    385.47291   -159.35851    39893.952 
    5900    300.69411   -1122.3743    194.01282    425.96595   -484.40649    39893.952 
    6000     307.5281   -1075.4552    213.58618    523.23882    148.03756    39893.952 
    6100    298.35916   -1115.6092    177.87094    406.07261    274.60239    39893.952 
    6200      304.591   -1126.4688    185.73148    431.14173    605.73486    39893.952 
    6300    298.59812   -1097.9572     196.7115    443.64144    642.23361    39893.952 
    6400    299.55125   -1101.8179    205.72451    453.08665    349.80446    39893.952 
    6500    303.83703    -1118.058    202.03016    452.45533    691.21716    39893.952 
    6600    294.49623   -1098.8846    194.77185    422.29947    92.115185    39893.952 
    6700    294.20769   -1089.0486    211.57432    447.63828     290.7227    39893.952 
    6800    306.27875   -1086.9652    209.95889    502.47436    659.54655    39893.952 
    6900    305.98093   -1109.2806    190.36461    459.22337    230.58696    39893.952 
    7000    302.14074   -1108.7354    201.53897    453.64668    490.62858    39893.952 
    7100    295.38934   -1100.6331     200.7007    430.50233    276.49073    39893.952 
    7200    292.87879   -1069.8719    217.58361    466.83895    80.350352    39893.952 
    7300    300.55193   -1096.6101    217.33995    474.41689    364.70742    39893.952 
    7400    299.82578   -1109.8446     214.6149    455.18674    54.516196    39893.952 
    7500    295.73091   -1096.2285    221.97764     457.7223    121.52204    39893.952 
    7600    292.51875   -1095.8825    216.59758    438.22064    266.84445    39893.952 
    7700    292.76896   -1156.0779    214.01314     376.5678    571.19822    39893.952 
    7800    293.04635   -1108.0376    212.59252    424.43686    280.61827    39893.952 
    7900    297.86935    -1094.081    224.24387    471.76761    218.19809    39893.952 
    8000    304.47883   -1129.3442    226.16467    468.19431    182.25345    39893.952 
    8100     289.9582   -1149.4273    228.80689     385.3525    169.77699    39893.952 
    8200    296.12386   -1126.9853     215.3636    422.12134     97.18537    39893.952 
    8300     298.3845    -1134.931    235.75144    444.74539    560.14797    39893.952 
    8400    298.17751    -1059.118    238.43529    522.30999    337.55714    39893.952 
    8500     290.6353   -1055.0844    225.57076    479.50892     92.86759    39893.952 
    8600    302.80582   -1068.2047    226.31756    521.95145    178.34042    39893.952 
    8700    295.02908   -1095.3614     235.8069    469.25765    363.77918    39893.952 
    8800    297.54322   -1087.9198    227.57154    479.78764    617.83071    39893.952 
    8900    308.88697   -1066.1682    237.52796    562.58788    610.43543    39893.952 
    9000    307.64495   -1081.9871    234.92843    538.57538    448.08555    39893.952 
    9100     311.4352   -1099.3696    230.09565    533.43145     564.4411    39893.952 
    9200    307.37654   -1046.4841    238.21747    576.15853    201.70506    39893.952 
    9300    302.96397   -1052.4148     226.1269    538.26299    137.70334    39893.952 
    9400    305.63106   -1014.9163     237.7151    599.36234    200.80354    39893.952 
    9500     301.3313   -1066.9897    239.02853    529.23615    179.43461    39893.952 
    9600    308.25494   -1052.0639     242.5376    578.85518    14.211934    39893.952 
    9700    307.23418   -1032.0577    235.84081     587.5671   -96.087069    39893.952 
    9800    305.20181   -1049.5453    237.87708    562.96199   -4.8519157    39893.952 
    9900    311.90524   -1043.6388    242.37267    603.55633   -9.4523927    39893.952 
   10000    288.74411    -1060.612    243.54455    483.43719    33.761213    39893.952 
   10100    285.55073   -1061.5764    243.77603    468.32122   -301.36812    39893.952 
   10200    295.84278    -1052.413    242.40268    522.46678    65.059831    39893.952 
   10300     297.3203   -1070.3028    244.73035     513.5594    299.48075    39893.952 
   10400    315.06665   -1094.7024    245.96193    570.32098    824.60905    39893.952 
   10500    302.92138   -1101.4633    253.00294     515.8988    41.313052    39893.952 
   10600    295.05706   -1071.1545    242.36517    500.14887    405.93353    39893.952 
   10700    307.12834   -1068.9298    255.13992    569.51736    351.22076    39893.952 
   10800    302.50361   -1062.0257    253.54435    553.99615    570.39641    39893.952 
   10900     296.2279    -1061.822     253.4473    525.83697     265.3463    39893.952 
   11000    314.37815   -1070.0136     256.2098    602.15666    494.21095    39893.952 
   11100    286.84603   -1059.6268    254.52789     486.8567    16.953143    39893.952 
   11200    307.23713   -1050.4723    260.32744    593.65235    330.85029    39893.952 
   11300    295.01485   -1049.4786    266.50776    545.77721    512.83694    39893.952 
   11400    306.90644    -1083.199    259.21968    558.32846    325.64076    39893.952 
   11500    292.55256   -1124.8838    261.77789    454.55193    529.48953    39893.952 
   11600    297.34838   -1122.0136    267.91683     485.1615    589.57344    39893.952 
   11700    298.52654   -1097.5062    268.71887    515.77739    581.31117    39893.952 
   11800    297.53205   -1068.9625    265.67035    536.79338    729.28204    39893.952 
   11900     302.7419   -1082.3548     251.7726    532.96846    583.54744    39893.952 
   12000    301.81915   -1085.1963    273.71895    547.91727    634.78868    39893.952 
   12100    301.09737   -1158.2125    250.08797    448.01929    235.12947    39893.952 
   12200    290.96754   -1129.3627    266.29131    447.44758    127.81197    39893.952 
   12300    296.82412   -1082.2116    275.44381    530.12922     153.1089    39893.952 
   12400    293.01712   -1098.0811    269.69951    491.36873   -39.897039    39893.952 
   12500    298.26663   -1107.6101    275.70466    511.48859    408.21171    39893.952 
   12600    295.41499   -1144.0208    260.49458    447.02408   -185.78733    39893.952 
   12700    296.97671   -1088.6605    268.47836    517.40218    341.98655    39893.952 
   12800    308.32894   -1148.7671     266.3936    506.34131    261.92257    39893.952 
   12900    301.28804   -1170.8451     269.3654    455.52282    738.51174    39893.952 
   13000    296.76722   -1170.8678    267.39878    433.17178    768.09422    39893.952 
   13100    292.87128   -1147.2439    277.72051    449.57002    650.51817    39893.952 
   13200    296.54141   -1109.5485    272.22956    498.30473    531.68573    39893.952 
   13300    291.82331   -1148.6609     278.9948    444.70722    291.00008    39893.952 
   13400    291.90577   -1162.0176    283.30172    436.02886    242.53944    39893.952 
   13500    308.03512   -1159.4585    271.72241     499.6553    352.32229    39893.952 
   13600    295.21911   -1164.8481    273.31148    438.13136   -240.01821    39893.952 
   13700    294.96032   -1156.0871    283.99024    456.40562    69.201123    39893.952 
   13800    303.83169   -1162.6017    276.19239    482.04986    315.70373    39893.952 
   13900    304.27742   -1113.6729    282.17883    538.97268   -1.4318446    39893.952 
   14000    302.09377   -1123.6715    273.78605    510.74607   -33.356205    39893.952 
   14100    296.93332   -1107.5876    273.77723    503.57853   -123.01243    39893.952 
   14200    297.29007   -1088.4036    292.22356    542.81559    -121.8696    39893.952 
   14300    296.29217   -1122.0802    267.62262    480.04353    289.57525    39893.952 
   14400    300.79129   -1146.3125    266.94774    475.40042    81.564785    39893.952 
   14500    304.02551   -1175.6271    267.15077    460.85581   -50.472446    39893.952 
   14600    295.16692   -1111.3812    271.28445    489.33621   -511.59593    39893.952 
   14700    294.35024   -1146.7221    279.89295    458.92544   -309.28086    39893.952 
   14800    300.71945    -1198.112    273.20998    429.53963   -305.29828    39893.952 
   14900    299.74791   -1185.8881    285.25853     449.4362    -147.3266    39893.952 
   15000    298.71111   -1168.4094    260.89237      437.879   -57.954739    39893.952 
   15100    302.77132   -1160.4797    298.86729    502.07084    384.28301    39893.952 
   15200    298.73431   -1165.2915    256.92403    437.13307    302.34879    39893.952 
   15300    311.78783   -1135.7171    263.30457    531.88113    571.33574    39893.952 
   15400    300.29485   -1118.2111    294.49158    528.80965    535.38109    39893.952 
   15500    296.62081   -1117.2496    283.94365    502.67534    946.36986    39893.952 
   15600    297.90916   -1147.7116    287.36295    481.43543    582.81587    39893.952 
   15700    303.30648   -1155.5908    271.63687    482.13965    483.27799    39893.952 
   15800     296.1643   -1136.5771    287.94988    485.29792    418.86274    39893.952 
   15900     296.3353   -1117.4759    281.84734     499.0668    6.9406559    39893.952 
   16000    309.76971   -1133.4591    281.58906    543.33397   -7.4029038    39893.952 
   16100    300.60065   -1188.7113    281.24181    446.43702    230.66503    39893.952 
   16200    302.71433   -1139.2544    288.00955    512.18175    376.83402    39893.952 
   16300    292.32475   -1122.8653    284.46255    478.22909    471.42513    39893.952 
   16400    308.70844   -1128.4097    300.83442    562.84879    549.00668    39893.952 
   16500    301.65426   -1098.0794    287.31067    547.88319     486.4566    39893.952 
   16600    300.80939   -1076.6989    299.69106    577.83883     581.7445    39893.952 
   16700    295.24946   -1045.7669    289.04881    573.08668    341.32848    39893.952 
   16800    307.19593   -1080.9886    287.00904    589.63209    646.31633    39893.952 
   16900    296.78332   -1037.8871    296.25674     595.0829    695.85597    39893.952 
   17000    291.41162   -1113.3613    271.10475    470.26259    31.331482    39893.952 
   17100    310.12464   -1085.7826    309.17565     620.1957    264.17367    39893.952 
   17200    306.24578   -1096.6401    293.43813    576.13023    313.09371    39893.952 
   17300    306.88375   -1084.3593    297.13443    594.98073     650.8702    39893.952 
   17400    304.26829   -1139.5529     296.1774    527.05006    124.92914    39893.952 
   17500    307.85164   -1104.0377    291.24226    573.76956    479.54022    39893.952 
   17600     291.9549   -1103.5195    283.10893    494.55549    491.40834    39893.952 
   17700    302.51594   -1144.1427    300.61236    519.00265    639.49765    39893.952 
   17800    302.41364    -1168.888    283.83106    477.01529    383.69207    39893.952 
   17900     305.7992   -1115.2577    299.93534    561.99847    514.97804    39893.952 
   18000     305.8474   -1149.2542    282.13003    510.41378    553.38626    39893.952 
   18100    302.83841   -1183.3388    296.09164    476.73827     157.5803    39893.952 
   18200    296.50318   -1131.2963    293.40718    497.56243    315.50636    39893.952 
   18300    299.86656   -1084.5996     307.8542    573.85484    31.838003    39893.952 
   18400    300.12691   -1134.7029    292.94181    510.01166   -73.693119    39893.952 
   18500     300.0449   -1142.7227    304.44361    513.12436   -298.63393    39893.952 
   18600    303.97607   -1140.1586    300.31023    529.26109    8.9170106    39893.952 
   18700    307.18092   -1165.3753    275.14123    493.30996   -3.2583767    39893.952 
   18800    296.99671   -1123.2107     317.9063    532.36994   -60.540012    39893.952 
   18900    291.23033   -1120.7756    307.15979     498.0868   -301.84319    39893.952 
   19000    291.17469   -1125.6946    289.52348    475.28086   -89.736008    39893.952 
   19100     303.2047   -1123.7045    303.25278    545.18342   -18.028459    39893.952 
   19200    308.93222   -1112.9458    293.35694    571.84305    568.27988    39893.952 
   19300    307.47654   -1141.8926     311.1393    554.12226    615.97528    39893.952 
   19400    300.00259   -1153.5839    295.97502    493.60405    480.98211    39893.952 
   19500    294.46809   -1173.3654    285.28938    438.20944    329.25968    39893.952 
   19600     300.0259   -1128.1314    300.11011    523.29653    630.04525    39893.952 
   19700    302.37507   -1160.1469    310.39689    512.14854    569.23624    39893.952 
   19800    307.92289   -1150.1726    292.88736    529.60063    464.77661    39893.952 
   19900    308.39979   -1154.0296    305.92057    540.92481    345.96803    39893.952 
   20000    295.89526   -1179.9692     319.3237    472.06791    52.007073    39893.952 
   20100    315.66026   -1185.6628    319.50455    555.57687    -120.8556    39893.952 
   20200    302.52581   -1151.7811    297.07042    507.86676    52.901124    39893.952 
   20300    304.28698   -1171.3473    292.44738    491.60984   -271.87767    39893.952 
   20400    300.92214   -1155.1995    282.86445     483.0195     7.217578    39893.952 
   20500      300.834   -1206.1827     309.0758    457.85059     165.2696    39893.952 
   20600     295.5594   -1220.0358    300.30987    411.47486   -185.79829    39893.952 
   20700    293.81772   -1198.8366    295.07482    419.59444   -331.28883    39893.952 
   20800    307.62302   -1154.9921    315.91726    546.46049   -92.280897    39893.952 
   20900    294.52123   -1165.9255    289.23174    449.83097    109.83123    39893.952 
   21000    305.86053   -1197.5985    286.71715    466.71566    290.75937    39893.952 
   21100    297.61761    -1153.703    314.91787    501.68574    82.524179    39893.952 
   21200    297.02704   -1129.0281     312.0669    520.84974    274.63106    39893.952 
   21300    293.25341   -1155.3779    303.49915    468.93579    -77.41704    39893.952 
   21400    295.11136   -1162.5237    305.04215    471.70119    -14.75339    39893.952 
   21500    292.23686   -1202.6179    300.53593    414.15397   -400.13067    39893.952 
   21600    296.82498   -1155.0058    305.43378    487.32888    397.50673    39893.952 
   21700    301.82635   -1167.2003     317.9338    510.16059    138.24382    39893.952 
   21800    298.81166   -1132.3376    305.37584    518.88715    127.88483    39893.952 
   21900    301.31443   -1169.5563    310.90601    498.47113    741.48726    39893.952 
   22000    309.27243   -1192.2162    298.38565    499.13376    442.56606    39893.952 
   22100      309.377   -1217.5401      297.558    473.45317    407.52056    39893.952 
   22200    305.07432   -1234.4592    297.04196    436.63873    155.11607    39893.952 
   22300    303.32756   -1175.5552    296.68446     487.3178    28.144861    39893.952 
   22400    296.77633   -1179.4302    305.79163    463.04323    -280.2056    39893.952 
   22500    294.24747   -1168.4354    304.31477    461.17112    196.25581    39893.952 
   22600    302.85549   -1184.0912    302.16749    482.13863    335.66491    39893.952 
   22700    303.60982   -1198.6925    312.97424    481.74154    267.74423    39893.952 
   22800    293.53264    -1217.304    280.67976    385.44792   -222.72489    39893.952 
   22900    298.89247   -1166.0884    307.25738    487.38189     36.48884    39893.952 
   23000    293.84943   -1205.4884    313.07884    431.08942    83.208194    39893.952 
   23100    297.53276   -1139.9572    320.08946    520.22098   0.85819524    39893.952 
   23200    294.77445   -1158.4915    299.10105    468.27481    241.34853    39893.952 
   23300     303.1221   -1178.8689    308.73682    495.13108    159.74443    39893.952 
   23400    300.73946    -1199.779    317.34009     472.0928    259.76202    39893.952 
   23500    296.99401   -1189.2935    316.43924     464.8079    504.83527    39893.952 
   23600    306.94136   -1189.3714    319.90917    513.00288    311.52321    39893.952 
   23700    291.64636   -1206.7259    332.13595    438.98637    221.12624    39893.952 
   23800    300.18258   -1206.5531      318.529    463.99946    615.52348    39893.952 
   23900    294.00472   -1208.6604    297.42892    412.96697   -125.80686    39893.952 
   24000    300.43219   -1211.8249    327.08793    468.41076   -160.49211    39893.952 
   24100    291.37675   -1188.1043    309.44477    433.70252    120.86177    39893.952 
   24200    288.57389   -1199.4769    305.99566    406.25671   -456.37429    39893.952 
   24300    292.67993   -1199.3887    320.55201    439.39487   -28.300317    39893.952 
   24400    297.95717   -1166.7188    312.90721    488.18871    -134.1699    39893.952 
   24500    293.42449   -1161.5596    317.14791     477.1734   -631.28316    39893.952 
   24600    299.45163   -1167.1667    318.09194    499.65661   -547.89163    39893.952 
   24700    300.19806   -1203.9123    323.69942    471.88037   -338.20824    39893.952 
   24800    296.45558   -1140.3058    315.15644    510.08778   -177.56439    39893.952 
   24900    305.76513   -1186.8813    310.96803    501.25409   -90.716877    39893.952 
   25000    301.27284   -1201.8362    326.30241    481.40023     306.9957    39893.952 
   25100     308.7338   -1213.7708     307.1048    483.87223    288.40461    39893.952 
   25200    291.58634   -1221.0398    327.08467    419.35094    278.91002    39893.952 
   25300     302.6676   -1235.0434    321.16164    449.33436    84.493249    39893.952 
   25400    307.22509   -1177.7917    337.44181     543.3931    12.293566    39893.952 
   25500    299.14191   -1202.2021    346.21499    491.34925   -103.89728    39893.952 
   25600    306.20118   -1182.3964    336.33214     533.0671    112.85184    39893.952 
   25700     301.0665   -1184.6957     330.0589    501.36785   -53.615883    39893.952 
   25800    300.16954   -1189.8073     322.9108    485.06833   -270.22641    39893.952 
   25900    297.27469   -1216.7651    325.51748    447.67879    59.575934    39893.952 
   26000    315.26852   -1193.4664    327.84832    554.35263    74.119716    39893.952 
   26100    296.63806   -1197.8676    325.17402    463.36543    76.975546    39893.952 
   26200    298.70765    -1198.395    324.44065    471.42603    383.69153    39893.952 
   26300    293.72417   -1209.2185    349.60126    463.31762    485.27712    39893.952 
   26400    309.00223   -1218.4651    312.82163    486.10378    275.83808    39893.952 
   26500    306.02903   -1200.7732    336.74412    514.32687    504.69407    39893.952 
   26600    303.91843   -1222.0522    313.25196    460.04956   -46.335547    39893.952 
   26700    311.18794   -1221.3322    329.49784    509.75735    387.23554    39893.952 
   26800    300.19047   -1203.3007    328.71422    477.47254    304.82497    39893.952 
   26900    299.72212   -1224.2695    333.80223    459.48235     344.7699    39893.952 
   27000    301.64106   -1218.9578    324.12947     463.7642    426.62113    39893.952 
   27100    288.51692   -1172.9142    335.04103    461.60816    425.14178    39893.952 
   27200    288.72651   -1245.0435    350.58439    405.96621    170.16863    39893.952 
   27300    291.75224   -1197.5864    337.07424    453.54108    208.09506    39893.952 
   27400    293.13324    -1236.335    326.93649     410.8748    459.26004    39893.952 
   27500    312.55127   -1252.5089    335.28941    490.51265    343.97734    39893.952 
   27600    304.70783   -1245.2275    330.17551    457.35331   -144.18945    39893.952 
   27700    300.62251   -1238.7049    332.77501     448.0751    563.79783    39893.952 
   27800     306.2519   -1205.2689    343.65839    517.74923    546.84737    39893.952 
   27900    295.91782   -1235.2019    330.46366     428.0768    728.92232    39893.952 
   28000    303.87383   -1213.9605    322.70513    477.39355    438.20843    39893.952 
   28100    302.36361   -1189.9796    342.60582    514.47314   -1.6990166    39893.952 
   28200    293.44957   -1235.6011    342.20853    428.30541    27.550765    39893.952 
   28300    291.73974   -1216.0157    338.12446    436.10571   -65.384501    39893.952 
   28400    302.25953   -1199.7832    329.60595     491.2009   -48.527718    39893.952 
   28500    310.10696   -1221.4595    347.34653    522.60997    119.53819    39893.952 
   28600    301.21249    -1232.034    338.45464    463.08291     423.0636    39893.952 
   28700    299.64703   -1237.5353    355.11258    467.18875    196.39051    39893.952 
   28800    307.08077   -1199.3854    358.77037    542.47797     160.5615    39893.952 
   28900    294.39322   -1188.0546    341.80716    479.70079   -126.87366    39893.952 
   29000     304.6017   -1216.4879    345.83252    501.27184   -62.675484    39893.952 
   29100    296.66847   -1230.4131    333.27287     439.0557   -29.032307    39893.952 
   29200    295.10959   -1286.4709    343.55818    386.26206   -302.93077    39893.952 
   29300    304.04353   -1269.7537    342.65275    442.31234   -365.96286    39893.952 
   29400    294.85144   -1250.1123    336.05716    413.95699   -5.4354971    39893.952 
   29500    313.61402   -1214.3122    335.21192     533.4185     516.0109    39893.952 
   29600    293.32229   -1218.6167    354.14098    456.64905   -184.72796    39893.952 
   29700    309.95357   -1238.3325    332.75537    490.45502    160.42642    39893.952 
   29800    300.67886   -1228.0918    333.68992    459.85687    283.58989    39893.952 
   29900    302.24775   -1200.2507    353.38212     514.4565    188.48591    39893.952 
   30000    294.03564   -1214.4526    351.69518    461.58033    94.511193    39893.952 
   30100    296.95395   -1236.6741    359.16739    459.97513    133.59043    39893.952 
   30200    304.48716   -1256.8287    363.94762    478.53032    460.29621    39893.952 
   30300    295.45042   -1268.8838    354.03335    415.85942    445.21381    39893.952 
   30400    296.90077   -1237.6637    359.71292    459.29152    476.30573    39893.952 
   30500    288.20896   -1288.2854    355.96146    365.77035    464.75395    39893.952 
   30600     306.0837   -1272.5968    356.64294    462.64836    488.36535    39893.952 
   30700    295.60856   -1244.6946     340.4713    427.19888    457.87799    39893.952 
   30800    304.39723   -1251.2591    354.67226    474.41953   -57.824507    39893.952 
   30900     297.4594   -1241.0445    364.54698    463.26076    356.06522    39893.952 
   31000     295.4622   -1231.9955    357.89962    456.66708    233.96085    39893.952 
   31100    307.43788   -1271.1832    351.86507    465.38331    346.71804    39893.952 
   31200    296.94981   -1274.8622    363.22042    425.82136    499.96626    39893.952 
   31300    304.47854   -1312.0592    351.75599     411.0693    264.95529    39893.952 
   31400     302.9699   -1272.9573    349.35263    440.97293    -171.6135    39893.952 
   31500    291.57603   -1212.4799    363.60622    464.38594    238.26458    39893.952 
   31600    289.37392   -1242.3686    362.58493    423.55763   -97.796328    39893.952 
   31700     291.5654   -1270.6802    348.24018    390.77169   -116.42947    39893.952 
   31800    302.09768    -1271.194    362.79345     452.2486    101.24819    39893.952 
   31900    290.83703   -1262.9284    373.61095     420.6137   -69.836119    39893.952 
   32000    301.21255   -1201.6002    380.51661    535.57894   -211.03496    39893.952 
   32100    301.77694   -1243.3736    365.19849    481.02939     -282.431    39893.952 
   32200    292.29579   -1249.5452    361.19913    428.15531    121.16551    39893.952 
   32300    305.29784   -1284.2937    344.69447    435.46346    267.16854    39893.952 
   32400    300.64814   -1283.7668    359.73392    430.08756    342.15501    39893.952 
   32500    306.48723   -1243.0489     357.3039    494.67473    376.37049    39893.952 
   32600     307.9291   -1267.7729    374.07392    493.21496 -0.041266964    39893.952 
   32700    292.81625   -1239.9343     348.5841    427.49535    184.24254    39893.952 
   32800     297.7722   -1254.7782    362.36849    448.75745     291.6463    39893.952 
   32900     310.1246   -1276.3206    355.77393    476.25574    635.05558    39893.952 
   33000    307.34709   -1260.0004    356.71385      481.006   -122.77225    39893.952 
   33100    294.87239   -1265.7621    366.58702    428.93141   -6.3011634    39893.952 
   33200    307.74527   -1293.5125    350.32921    442.90258    152.71268    39893.952 
   33300    297.02116   -1253.8831    358.03524    441.93662    35.416722    39893.952 
   33400    306.96294   -1241.3145    359.97436    501.22211     295.2613    39893.952 
   33500    296.54587   -1269.3416    365.56443    431.86664   -238.52413    39893.952 
   33600    293.37847   -1239.8143    358.64657    440.21007    237.13749    39893.952 
   33700     307.3668   -1219.4042    369.51939    534.49652   -102.28988    39893.952 
   33800    300.45232    -1220.705    401.52382    534.05724    95.659559    39893.952 
   33900    303.18206   -1239.1323    365.94193    492.34284    189.73016    39893.952 
   34000    306.52281    -1231.915    394.69526    543.36021    98.599429    39893.952 
   34100    300.57686   -1244.1945    381.54666    491.15159    346.27619    39893.952 
   34200    295.75884   -1246.3893    366.74691    452.45666   -73.774988    39893.952 
   34300    295.86558   -1238.3763    384.45652    478.65992    80.884758    39893.952 
   34400    306.83072   -1272.8077    336.15728    445.31635    81.803625    39893.952 
   34500    293.64612   -1259.5487    370.86613    433.90075    110.20668    39893.952 
   34600    298.49279   -1253.4981    378.23826    469.15284    326.07226    39893.952 
   34700    298.99333   -1259.3571    369.78011    457.09011     95.00846    39893.952 
   34800    289.80983   -1241.4676    376.47152    440.30858    85.585145    39893.952 
   34900    298.29194   -1244.1427     361.6584    461.02379   -258.88929    39893.952 
   35000    294.91268   -1260.9947    375.57112    442.86432    -202.4593    39893.952 
   35100    306.94463    -1256.663    366.32149    492.13836    60.473425    39893.952 
   35200    288.65624   -1267.4175     346.2865    378.97786       50.063    39893.952 
   35300     300.8649   -1239.5497    385.99838    501.54535   -72.655394    39893.952 
   35400    313.09611    -1252.306    371.64867    529.52877    397.84006    39893.952 
   35500    291.79846   -1258.3384    377.65806    433.58105    261.92186    39893.952 
   35600     302.9977   -1260.1507    354.23046    458.78259   -84.233765    39893.952 
   35700    300.85244   -1245.8155       367.95    477.17514   -73.720547    39893.952 
   35800    306.86143   -1227.6775    353.83383    508.26138    217.33367    39893.952 
   35900    289.56435   -1214.6893     375.8526    465.36228    -545.3661    39893.952 
   36000    303.87531   -1226.9558    371.55247    513.25228    444.01207    39893.952 
   36100      312.635   -1269.4994    370.71225    509.32212    265.84101    39893.952 
   36200    307.88251   -1293.0471    364.65978    458.31674    566.02889    39893.952 
   36300     300.6265   -1272.6942    364.87791    446.20664   -86.031623    39893.952 
   36400    305.00977    -1251.918     379.5023    501.34948    90.626063    39893.952 
   36500    292.74723   -1254.7651    362.02839    425.79799   -330.62273    39893.952 
   36600    306.09433   -1264.9386    359.42766    473.13915   -70.307636    39893.952 
   36700    294.71891   -1268.1887    379.26937    438.49577   -320.71973    39893.952 
   36800    312.67283   -1218.4017    363.69357    553.57152     62.06342    39893.952 
   36900    302.72887   -1249.6166    373.58847    487.46391    178.02551    39893.952 
   37000    294.69117   -1247.7926    379.71761    459.21521    721.21691    39893.952 
   37100    305.12636   -1285.7416    366.76769    455.31642    236.85058    39893.952 
   37200    303.27107   -1235.2405    359.77058    490.46417    79.553711    39893.952 
   37300    307.28709   -1276.3267    378.59416    486.28975    361.10908    39893.952 
   37400    296.94612    -1225.093    390.86889    503.22236    699.74208    39893.952 
   37500    296.73646   -1203.3642    385.74714    518.88518    235.70422    39893.952 
   37600    291.87165   -1214.9975     376.3868    475.98033    736.56285    39893.952 
   37700    307.74663   -1228.8524    359.10737    516.34708    826.67927    39893.952 
   37800    297.22917   -1245.3344     384.6925    478.07941    602.65883    39893.952 
   37900    302.36573   -1258.5955    361.49663    464.75762    536.11751    39893.952 
   38000    305.77347    -1289.406    367.11097    454.90986   -52.185401    39893.952 
   38100    294.52514    -1229.306    354.38438    451.62077   -33.607926    39893.952 
   38200      301.028   -1269.7074    374.53941    460.66335     -86.7374    39893.952 
   38300    298.04363   -1243.3983    371.47928    470.47064     -234.528    39893.952 
   38400    300.49757   -1239.2079    390.78465    505.01904   -97.275091    39893.952 
   38500    301.50789   -1242.9842    395.63057    510.63912   -435.27136    39893.952 
   38600    306.41527   -1223.1877    379.81233    536.72023   -377.97324    39893.952 
   38700    298.67481    -1266.741    369.69054    448.18202   -598.08384    39893.952 
   38800    292.15507   -1235.5454    383.97024    464.29243   -155.96042    39893.952 
   38900    308.73588   -1265.9138    384.57531    509.20909   -74.514113    39893.952 
   39000    312.74155   -1288.6832    371.63397    491.53994    284.74747    39893.952 
   39100    306.52586   -1279.5576    376.13696    477.17308    177.88211    39893.952 
   39200     313.2694   -1269.7671    370.94823     512.1477    466.73299    39893.952 
   39300    303.36075   -1316.6465    377.83203    427.52358    -112.0166    39893.952 
   39400    299.17892   -1249.7879    365.49086    463.20599    138.01609    39893.952 
   39500    294.17119   -1208.8713    379.55212    495.62906    112.33043    39893.952 
   39600    298.70386   -1264.0922    350.40772    431.67886   -36.591182    39893.952 
   39700    300.77541   -1269.0075    387.35959    473.04575    307.15599    39893.952 
   39800    306.58473   -1270.4679     366.8716    477.26256   -101.17291    39893.952 
   39900    302.85733    -1302.813    373.32062    434.57821    161.23928    39893.952 
   40000    292.92387   -1304.6543    380.74147    395.41745     104.9274    39893.952 
   40100    299.67002   -1272.4503    373.36373    450.62842    357.63055    39893.952 
   40200    295.26524   -1252.3687    394.55501    472.06213    60.066775    39893.952 
   40300    306.57175   -1227.8053    385.92156     538.9167    504.68479    39893.952 
   40400    293.16485   -1260.1516    393.89155    454.15564    345.83876    39893.952 
   40500    306.88747   -1260.2742    378.74339    500.69155    290.45731    39893.952 
   40600    305.24191   -1268.8975    389.72464     495.6379    -135.9268    39893.952 
   40700    293.54535   -1259.9358    404.14353    466.33712   -263.28709    39893.952 
   40800    291.47491   -1260.7457    407.50112    459.55954   -329.01651    39893.952 
   40900    298.65358    -1249.043    389.71414    485.80804    1.2505563    39893.952 
   41000    304.76088   -1271.4196    392.48464     493.7093    -259.0555    39893.952 
   41100    305.22251   -1256.2498    411.28933    529.76293    -61.88142    39893.952 
   41200    304.09284   -1193.4472    395.82907     572.0172   -49.802839    39893.952 
   41300    304.21106    -1225.015     398.4256    543.57838    432.90602    39893.952 
   41400    298.92305   -1240.3001     422.6028    528.65327  -0.33903066    39893.952 
   41500    297.58062   -1244.3611    417.42669    513.36994   -65.914159    39893.952 
   41600    286.31923   -1224.4885    403.10526    468.19971   -125.89592    39893.952 
   41700    290.24781   -1239.1177    418.59427    486.75391   -18.623909    39893.952 
   41800    286.26485   -1239.5305    417.32841    467.13597     614.3078    39893.952 
   41900    291.50511   -1254.5144    403.50185    461.92762    150.97957    39893.952 
   42000    300.43564   -1253.9215    381.95044    481.19223    112.04905    39893.952 
   42100    293.33363   -1272.0492    384.79407    433.92074   -363.31911    39893.952 
   42200    301.11967   -1257.3424    379.07532    477.97707   -186.73054    39893.952 
   42300    295.88281   -1302.4147     401.6923    431.93497   -495.30559    39893.952 
   42400    302.23285   -1268.8845    397.71091    490.08438    568.16781    39893.952 
   42500    303.89168   -1284.4418    416.09835     500.3859     642.9781    39893.952 
   42600    299.76336   -1301.0392    413.52994    462.62614    262.91701    39893.952 
   42700    298.63895   -1313.5447    388.73059     420.2569    282.46826    39893.952 
   42800    302.62495   -1275.2242    413.05896    500.85876    578.60143    39893.952 
   42900     305.7183   -1305.1942    393.12905    464.89127    207.53312    39893.952 
   43000    305.45027   -1274.8121    391.29782    492.23498    315.23628    39893.952 
   43100    278.82515   -1279.8189    418.21092    394.22164     283.1008    39893.952 
   43200    294.19885   -1292.3463    404.46933    437.19581     523.1251    39893.952 
   43300    305.63399   -1308.6058    390.45414    458.42506    155.34586    39893.952 
   43400    300.48449   -1348.8653    392.39073    396.90876    206.28782    39893.952 
   43500    306.71563    -1288.225    400.19535    493.41871    431.71309    39893.952 
   43600    305.71469   -1263.9798    393.52663    506.48698    381.24906    39893.952 
   43700    300.09801   -1274.2325    387.97683    465.38701     373.8284    39893.952 
   43800    287.55453    -1309.379    393.89369    379.66141    120.85853    39893.952 
   43900    294.79194   -1293.4128    394.92638    429.25759    204.67132    39893.952 
   44000    305.75763    -1297.089    410.91453    490.95907    467.20407    39893.952 
   44100    303.25691   -1258.9383    395.19167    502.12373    1063.0842    39893.952 
   44200    306.79293   -1295.6357    389.53629    475.69724    780.20477    39893.952 
   44300    302.43387   -1268.9952    412.28021     505.4484    537.87932    39893.952 
   44400    301.06493   -1252.2243    409.95603    513.72937    229.85877    39893.952 
   44500    302.37019   -1297.3166    410.16333    474.72331    388.82861    39893.952 
   44600    302.91527    -1319.168    397.95767    443.12127    576.34498    39893.952 
   44700    293.07831   -1287.5043    394.98641    427.50797    911.55658    39893.952 
   44800    287.38085   -1315.2171    400.91695    380.06433    500.43279    39893.952 
   44900    293.23544   -1343.4695    392.97678    370.24087     782.7959    39893.952 
   45000    289.83286    -1314.192    392.37372    383.59005    665.73499    39893.952 
   45100    309.30577   -1317.3906    403.29793    479.02174    53.930285    39893.952 
   45200    296.66052   -1306.8915    427.46798    456.73662    295.18287    39893.952 
   45300    303.89316   -1279.3541    406.33059    495.71251   -134.75687    39893.952 
   45400    295.36313   -1295.2458    394.53925    429.61016   -413.02146    39893.952 
   45500    292.60199   -1311.7728    393.82537    399.93312   -754.08985    39893.952 
   45600     303.0787   -1303.9902     386.4902    447.56766   -460.09623    39893.952 
   45700    295.92921   -1267.9729    416.72439    481.61783    -467.1287    39893.952 
   45800    309.02406   -1292.8128    407.01693    506.04977   -408.36864    39893.952 
   45900    310.71538    -1349.172    395.83097    446.12234   -226.87143    39893.952 
   46000    303.83098   -1302.6221    392.03847     457.8723   -129.01062    39893.952 
   46100    293.48995    -1308.256    396.82585    410.44977   -381.98129    39893.952 
   46200    292.61832   -1305.2222    381.86978    394.60164   -53.883341    39893.952 
   46300    306.51215   -1288.7998    397.83635    489.56852   -80.576441    39893.952 
   46400    300.97525   -1298.0143    403.23387    460.81326     60.63579    39893.952 
   46500    299.23406   -1287.1051    403.07101     463.7173      86.8734    39893.952 
   46600    286.65888   -1291.2715    403.66049     403.5017   -148.83575    39893.952 
   46700    302.52041   -1290.1972    391.13159    463.48757    162.84591    39893.952 
   46800    290.81523   -1299.2807    413.01858     423.5708   -117.19001    39893.952 
   46900    304.78452   -1257.7707    408.10405    523.08401     108.9196    39893.952 
   47000    301.46184   -1304.7459    396.89698    449.93646    73.105935    39893.952 
   47100    296.72015   -1281.2732    410.57334    465.72885    133.18143    39893.952 
   47200    304.21684   -1318.7153    397.90444    449.38305   -75.481972    39893.952 
   47300    301.74495    -1299.785    403.40211    462.67755    231.01232    39893.952 
   47400    297.02369   -1299.8828    400.89029    438.80336    53.695409    39893.952 
   47500    294.14958   -1317.6691     407.1003    414.28207   -153.75331    39893.952 
   47600    305.12664   -1296.4674    381.72092     459.5451   -52.933588    39893.952 
   47700    299.79019   -1317.8523    378.17625    410.58017   -249.48545    39893.952 
   47800     292.0649   -1340.6229    378.29089     353.1294   -476.02777    39893.952 
   47900     289.4073   -1373.9107     388.5233    318.10423   -258.00413    39893.952 
   48000    301.11261   -1327.5255    386.69952    415.38647    548.36768    39893.952 
   48100    299.01479   -1303.0832    384.87663    428.55729    335.69632    39893.952 
   48200    298.39607   -1300.8637    399.97559    443.08899    391.42652    39893.952 
   48300     304.1255   -1316.5263    403.18098    456.43715    65.043641    39893.952 
   48400    310.37532   -1334.9611     379.7297    442.70023    95.269408    39893.952 
   48500    295.94373    -1366.919     394.0163     360.0291    -568.9915    39893.952 
   48600    287.99611   -1329.0414    392.59732    360.69159   -116.43458    39893.952 
   48700    303.22499   -1334.6272    372.99101    404.09036   -494.83579    39893.952 
   48800    294.84096   -1332.0791    396.73416    392.61999    238.62031    39893.952 
   48900    303.34049    -1295.995     388.8531    459.10489    365.42095    39893.952 
   49000    308.31731   -1331.4877    379.67724    436.85194    373.34189    39893.952 
   49100    297.15779   -1322.4319    391.51781    407.48573    115.45257    39893.952 
   49200    294.01687   -1340.3795    398.20537      382.079    252.90381    39893.952 
   49300    299.68408   -1264.5044    391.21843    476.49228    485.79241    39893.952 
   49400    290.66938   -1306.6834    395.53008    398.02275    318.69592    39893.952 
   49500    296.31045   -1316.6295    399.61808    417.57205    184.14574    39893.952 
   49600    297.57713   -1326.9063    392.90525    406.28746    244.61452    39893.952 
   49700    295.09386   -1329.4922    394.03685    393.64853    94.181652    39893.952 
   49800    296.11629   -1301.9258    425.22712    457.01023   -24.378096    39893.952 
   49900    308.81356   -1306.2141    392.58649    477.26996    419.72773    39893.952 
   50000    302.67488   -1287.8494     423.7757    499.17514    738.34919    39893.952 
   50100    289.97727   -1297.2798    440.52801      449.307    520.19327    39893.952 
   50200    305.10984   -1270.4274    420.38552    524.17401    358.44035    39893.952 
   50300    300.84997   -1259.0336    440.19668    536.19254    692.89187    39893.952 
   50400     301.7484   -1290.7318    418.71243    487.05659    721.27324    39893.952 
   50500    290.06291   -1327.8623    406.57764    385.15979    649.25443    39893.952 
   50600    297.10106   -1353.3734    432.03551    416.80647    84.232917    39893.952 
   50700    311.10018   -1324.0761    423.61029    500.73064    736.24922    39893.952 
   50800    297.68391   -1348.3314    413.34826    405.78637      503.649    39893.952 
   50900    285.19822   -1320.5621    430.17877    394.15056    636.30805    39893.952 
   51000    303.02402   -1276.0961     426.4207    515.14597    413.68979    39893.952 
   51100    314.18757   -1307.6003    423.40392    530.90572    173.89022    39893.952 
   51200    294.21389   -1322.7493    433.97952    436.37072   -180.38602    39893.952 
   51300    293.40669   -1320.7428    392.98128    393.74341   -168.28486    39893.952 
   51400    295.72697   -1315.2449    403.54938     420.2599   -46.663375    39893.952 
   51500    302.46057   -1333.0706    420.17116    449.38421    6.0964921    39893.952 
   51600     302.8966   -1345.7996     423.7594    442.20734   -215.19325    39893.952 
   51700    301.95903   -1379.6374    395.65334    376.04067   -213.43924    39893.952 
   51800    298.77423   -1335.7674    404.61064    414.52351    73.031556    39893.952 
   51900    299.16761   -1292.2751    425.87634    481.05333   -566.11092    39893.952 
   52000    292.69596   -1352.8417    407.14897    372.61102    21.566156    39893.952 
   52100    302.72015   -1337.0783    415.22263    441.59709   -109.85773    39893.952 
   52200    302.32371   -1332.2314    415.43682    444.87262    215.99746    39893.952 
   52300    299.52268   -1338.7971    390.44693     400.7012   -35.634577    39893.952 
   52400    299.04632   -1317.2673    411.27774    440.91625    -234.3703    39893.952 
   52500     297.6639   -1329.1714    413.64028    425.14825   -381.63927    39893.952 
   52600    303.26841   -1326.7807    415.50003    454.64141    72.707457    39893.952 
   52700    305.19482    -1334.395    401.86173    442.06543   -164.77678    39893.952 
   52800     293.4938   -1297.7356    408.82365    432.98535   -170.73648    39893.952 
   52900    298.29321   -1320.2243    389.02054    412.31009   -341.73558    39893.952 
   53000    295.43242   -1344.7234    386.85181    372.75724   -474.48218    39893.952 
   53100    293.86992   -1321.3486    397.92173    400.16443   -807.32948    39893.952 
   53200    304.79103   -1325.7168     400.9942    448.05743   -577.19836    39893.952 
   53300    287.68087   -1332.8695    409.33348    372.17976   -155.23342    39893.952 
   53400    309.10185   -1355.6569    408.16387    444.70298     12.21734    39893.952 
   53500    305.62902   -1353.3183     409.3595    432.59556   -522.44178    39893.952 
   53600    302.18786   -1353.2232    409.20696    417.03908   -419.33337    39893.952 
   53700    296.19375   -1344.5931    388.02165    377.48641   -281.58411    39893.952 
   53800    294.97698   -1329.5707    394.55361    393.56035   -396.04625    39893.952 
   53900    314.52258   -1308.4064    404.53306    512.73764  -0.33136716    39893.952 
   54000    289.30365   -1281.5992    416.98073    438.40634    89.243778    39893.952 
   54100     307.5893   -1270.5696    401.25232    516.06621   -394.54618    39893.952 
   54200    303.99563   -1274.0492    419.67469    514.82302   -225.98334    39893.952 
   54300    299.91199   -1301.0368    415.78943    465.55745   -156.62955    39893.952 
   54400    304.51903   -1308.3233    419.15806    482.38969   -120.24056    39893.952 
   54500    298.11843   -1296.5859     420.4831    466.62383   -283.04761    39893.952 
   54600    299.04447   -1282.4931    433.70799     498.1124    276.72367    39893.952 
   54700    306.73276   -1275.1358    409.35272    515.74254   -109.58809    39893.952 
   54800    294.62266   -1327.5591    402.44024    401.86275    87.989531    39893.952 
   54900    305.81805   -1372.6939    406.98734    411.69922    183.73624    39893.952 
   55000     305.9271   -1319.5237    409.78946    468.16264    958.81317    39893.952 
   55100    299.21595   -1381.5602    414.33973    380.44936    724.31167    39893.952 
   55200     301.9489   -1380.1136    399.77114    379.63655    360.82883    39893.952 
   55300    306.21682   -1335.4775    391.57655     435.3008    153.78337    39893.952 
   55400    304.34302   -1357.6149    398.62981    411.77704    543.24618    39893.952 
   55500    298.46965   -1388.8474    403.64908    359.11015    365.35341    39893.952 
   55600    297.89386   -1421.0634    392.73036     313.3821    76.076219    39893.952 
   55700    305.44384   -1388.1193    401.90583    389.50684   -25.994361    39893.952 
   55800    309.91755   -1359.0433    371.50333    408.32992    49.616478    39893.952 
   55900    302.75664   -1320.9233    392.82981    435.52363   -249.82643    39893.952 
   56000    290.09789   -1350.1474    403.33913    359.79374    279.99976    39893.952 
   56100    304.51815   -1366.7861    390.25995    395.02479   -169.75003    39893.952 
   56200    301.27779   -1305.1235    401.78494    453.61781    175.91687    39893.952 
   56300    290.98229   -1336.3738    411.53202    385.74363    251.02079    39893.952 
   56400    296.57145   -1300.8196    412.45494    447.39432    80.713131    39893.952 
   56500     303.9042   -1348.0347    426.02935     446.7804   -280.60496    39893.952 
   56600    297.64754   -1383.2838    398.00552    355.32742   -459.08147    39893.952 
   56700    295.11772   -1321.0565    411.94176    420.09669   -449.30455    39893.952 
   56800    293.77481   -1319.4337    394.65032    398.37956    29.458414    39893.952 
   56900    287.96628    -1350.252    411.28531    358.03452     503.0949    39893.952 
   57000    302.91261   -1370.9474    406.55831    399.93046     582.4403    39893.952 
   57100    307.33053   -1358.7266    399.68382    425.17516   -79.303478    39893.952 
   57200    306.97829   -1397.7202    414.37737    399.28858   -138.38887    39893.952 
   57300    306.51949   -1313.8612    415.68942    482.39327    85.874309    39893.952 
   57400    303.04742   -1317.5648    399.95152    447.31347    55.796561    39893.952 
   57500    295.26612   -1307.0182    413.43127    436.29288   -3.9940802    39893.952 
   57600    304.53707   -1304.0314    401.30451    468.90931    347.22044    39893.952 
   57700    297.03479   -1347.0995    430.09919     420.8456    254.59345    39893.952 
   57800    291.45124   -1345.8095    426.64815    393.53617    145.29846    39893.952 
   57900    296.48276    -1330.546    432.85485    437.66841    397.88385    39893.952 
   58000    307.03704   -1334.7056    426.90708    475.09749   -394.55836    39893.952 
   58100     301.0716   -1315.8066    389.86959    430.09065   -678.46172    39893.952 
   58200    304.91186   -1331.5537    415.57594    457.34653    -490.8961    39893.952 
   58300    302.87306   -1304.0486     432.0367    492.12957   -9.3795085    39893.952 
   58400    291.61434   -1355.5223    424.03403    381.94386    455.57223    39893.952 
   58500    297.42021   -1346.5038    421.82904    414.90709    194.98944    39893.952 
   58600    302.12002    -1347.007     423.3012    437.04399    818.34709    39893.952 
   58700    297.83597   -1348.4728    433.30348    426.28507    333.98993    39893.952 
   58800    301.39426   -1355.7176    443.22063    444.98394    789.53214    39893.952 
   58900    309.44624   -1361.4176    451.66102    483.99049    850.66557    39893.952 
   59000     298.7699   -1343.6357     432.3551    434.38017   -139.92128    39893.952 
   59100    305.13766   -1360.9586    422.21512    435.59774    592.19577    39893.952 
   59200    302.63202   -1366.2054    418.23161    415.08207    99.621575    39893.952 
   59300    294.31409   -1325.4807    426.90823    427.01934    501.11255    39893.952 
   59400    303.25355   -1311.9144    424.99243    478.93329    374.01256    39893.952 
   59500    309.58257   -1320.5744    452.00799    525.79473    190.11223    39893.952 
   59600    295.01151   -1324.8142     421.2585    425.17732    414.66458    39893.952 
   59700    299.29578    -1329.332    418.60902    437.30642    17.611237    39893.952 
   59800    306.98411   -1364.2513    456.60248    475.00882   -295.03356    39893.952 
   59900    298.99422    -1340.914    409.71464    415.47181    33.435237    39893.952 
   60000    293.76054   -1346.9662    418.43309    394.56554    326.67076    39893.952 
   60100     305.5374   -1370.6398    428.52274    434.02465    47.738514    39893.952 
   60200    293.04023   -1352.5035     432.9561    400.30692    159.77189    39893.952 
   60300     301.0937    -1354.338    410.56707    412.35631    186.19571    39893.952 
   60400    298.92986   -1335.8413    440.01006    450.55003    73.784181    39893.952 
   60500     301.6503   -1347.7556    425.27616    436.15471    112.84672    39893.952 
   60600    290.65327   -1318.0666    456.45515    447.49205    228.12256    39893.952 
   60700     285.6881   -1329.9954    432.70667    389.45156    -99.91303    39893.952 
   60800    306.08578   -1332.0584    442.41295    488.96613   -256.24005    39893.952 
   60900    299.04943   -1328.8014    441.63549    459.75388   -114.87603    39893.952 
   61000    303.74172   -1374.0955    405.63865    399.59705    201.09423    39893.952 
   61100    291.07236   -1359.7442    425.40808    376.65494    88.872909    39893.952 
   61200    293.43285   -1341.6602    436.92371    416.88622     130.2086    39893.952 
   61300    299.11604   -1363.1989    417.99967     402.0206    95.130012    39893.952 
   61400    291.12287   -1335.6549    448.98891    424.55255    182.43698    39893.952 
   61500    307.04873   -1330.9332    435.21494    487.23046   -29.505514    39893.952 
   61600      303.368   -1312.9854     460.9879    514.37313   -682.60308    39893.952 
   61700    288.18596   -1316.9321    420.81722     401.8758   -747.75647    39893.952 
   61800    294.09804   -1297.3755    410.84476    438.08802    49.723555    39893.952 
   61900    296.33709    -1284.686    453.06842    503.08586   -193.69255    39893.952 
   62000    307.65663   -1327.8375    434.53466    492.38391    72.295249    39893.952 
   62100    307.59299   -1343.3182     421.1979    463.27977    605.93054    39893.952 
   62200    291.01286   -1334.1383    430.83265    407.41741    193.14882    39893.952 
   62300    312.34158    -1344.531    436.05044    498.30719    196.48346    39893.952 
   62400    287.14507    -1310.746    432.84687    415.40344    248.52492    39893.952 
   62500    303.03696   -1329.3148    445.33307    480.89798    220.59499    39893.952 
   62600     301.3688    -1313.656    439.93672      483.647     207.7608    39893.952 
   62700    295.76871   -1324.7732    452.94684    460.31713   -101.38811    39893.952 
   62800    289.66052   -1342.5161    435.98297    398.09902     6.383648    39893.952 
   62900    304.21653   -1357.3102    431.14124    444.02354    189.68433    39893.952 
   63000    303.27199   -1367.1269     446.4034    445.21473    139.13288    39893.952 
   63100    297.32829   -1364.6184    436.53974    411.08918   -56.377513    39893.952 
   63200    302.06675   -1354.7688    437.85487    443.59593    33.422093    39893.952 
   63300     297.7393   -1348.3808    429.49178    422.12999    329.65867    39893.952 
   63400    289.82039   -1354.8511    433.25836     383.7595    549.99196    39893.952 
   63500    292.16533   -1350.5051     454.2763    419.68496    164.69351    39893.952 
   63600     311.0421   -1362.6579     443.9369    482.21386    317.41286    39893.952 
   63700    298.01307   -1336.8808    454.72541    460.09668    -68.59165    39893.952 
   63800    296.83684   -1385.9184    428.17456    379.21051   -402.35383    39893.952 
   63900    299.08218   -1366.6292     437.0937    417.53186   -68.352778    39893.952 
   64000    296.76545   -1364.3635    439.24471    411.51398   -401.65782    39893.952 
   64100    304.01077   -1334.7714    472.93954    507.43386    563.44787    39893.952 
   64200    313.52784   -1358.5147    408.29924    461.91513    280.12074    39893.952 
   64300    302.35143   -1353.0345    424.69193    433.44948   -213.98351    39893.952 
   64400     296.3596   -1343.2938    447.14562    438.65661   -205.20671    39893.952 
   64500    310.03298   -1377.2366    430.29535    449.44859    585.54837    39893.952 
   64600    303.30717   -1339.0979    452.10787    479.10664    125.78623    39893.952 
   64700    303.72102    -1331.525    435.57612    472.01184   -127.57541    39893.952 
   64800    315.74033   -1314.9464    419.46325    526.61249    532.83278    39893.952 
   64900    312.92329     -1370.76    455.89547    494.54321    684.47081    39893.952 
   65000    296.05384   -1337.4517     436.0649    432.04083    302.48171    39893.952 
   65100    305.03311   -1353.5563    438.05055    458.36454    476.67229    39893.952 
   65200    302.41405     -1412.73    430.12198    379.46608    503.82608    39893.952 
   65300    306.30792   -1348.8136    457.73219    488.53063    523.04507    39893.952 
   65400    300.34827   -1342.0616    453.43309    464.14129    239.08384    39893.952 
   65500    293.69975   -1394.1792    445.32133    373.96694    503.84308    39893.952 
   65600    306.31898   -1348.8085    434.76784    465.62121    605.98862    39893.952 
   65700    291.64384   -1355.8331    419.50107    377.23298    483.90206    39893.952 
   65800    305.20062    -1327.685    454.41786     501.3577    208.94626    39893.952 
   65900    302.97311   -1369.1517    447.44699    442.88738    405.17523    39893.952 
   66000    294.12123    -1350.461     439.7467    414.00893    454.72312    39893.952 
   66100    298.29565   -1370.5615    431.95848    404.92178    848.26286    39893.952 
   66200    291.17318   -1382.0089    432.23726    361.67353    181.88712    39893.952 
   66300    299.21858   -1383.2952    408.51748    372.90402    44.684278    39893.952 
   66400    300.38512   -1357.0551    452.89634      448.777   -472.52025    39893.952 
   66500    291.48774   -1381.5972    438.22868    369.49343    181.44966    39893.952 
   66600    307.75877   -1385.6009    426.94602     427.4919   -194.55587    39893.952 
   66700    299.32411   -1392.1475    437.55908     393.5686     128.8804    39893.952 
   66800    305.58343   -1383.9704    436.42407    428.80271    23.487288    39893.952 
   66900    303.47519   -1391.1754    435.90712     411.5852    -338.5667    39893.952 
   67000    309.32474   -1361.2846    439.87993    471.79519   -681.96898    39893.952 
   67100    296.77172   -1379.7157    425.41201     382.3573   -335.22024    39893.952 
   67200    309.33431   -1394.9565    428.40685    426.69326   -136.35226    39893.952 
   67300    286.19633   -1420.7721     417.2222    285.47951   -137.26899    39893.952 
   67400    295.43645   -1391.1142    443.59796    383.13076   -31.827696    39893.952 
   67500    306.86185   -1343.3014    438.40051    477.20613    230.72921    39893.952 
   67600    301.62983   -1309.2207    447.01552    496.33672    290.35367    39893.952 
   67700    298.40263   -1320.5266    465.12138     488.6014    560.57611    39893.952 
   67800    298.19231   -1336.4259    435.39113    442.02461    199.77263    39893.952 
   67900    298.98316   -1324.0514    448.78707    471.35697    201.31773    39893.952 
   68000    298.10566   -1331.5402    461.65727    472.78613   -81.646636    39893.952 
   68100    296.50726   -1281.0666    446.61347     501.0168    509.59146    39893.952 
   68200    295.41126   -1295.9807    459.18378     493.7366   -19.715228    39893.952 
   68300     305.3261   -1303.8137     456.1454    527.52168    -173.3894    39893.952 
   68400    287.27854   -1322.9537    454.06421    425.01417    22.860847    39893.952 
   68500    303.00061   -1276.7247    431.00833    518.99957    50.990328    39893.952 
   68600     297.9291   -1307.3986    435.69545     470.1707   -132.77494    39893.952 
   68700    309.89517    -1303.945    462.61269    554.43676   -314.06622    39893.952 
   68800    305.80222   -1333.4654    454.21355    498.08254    31.610926    39893.952 
   68900     297.7009   -1301.7618     450.2685    489.35276    -346.8466    39893.952 
   69000    298.91164   -1295.7789    461.82447    512.34476   -117.24002    39893.952 
   69100    307.48438   -1332.9142    435.17168    487.16838   -342.86056    39893.952 
   69200    297.58851   -1353.7364    452.53527     439.1387   -434.13059    39893.952 
   69300    291.82104   -1304.2626    432.42417    442.52473     99.49351    39893.952 
   69400     296.3169   -1343.6157    432.01507    423.01186    55.160722    39893.952 
   69500    299.17804   -1274.1797     448.7845    522.10385   -104.37509    39893.952 
   69600    306.89729   -1321.8893    440.73724    501.11452   -97.959005    39893.952 
   69700    293.41118   -1318.0534    445.36167    448.83343   -471.33813    39893.952 
   69800    305.05556   -1289.3344    431.75118    516.38822   -299.42953    39893.952 
   69900    309.28595   -1321.8494    438.14394    509.31966   -83.551046    39893.952 
   70000    305.95042   -1340.3365    457.23021    494.89565   -259.33468    39893.952 
   70100    301.60489   -1381.0511    464.21258    441.59105    298.58251    39893.952 
   70200    289.85409   -1351.9977    436.09619    389.60241    138.40599    39893.952 
   70300    305.36211   -1325.6479    432.88398    482.58818    209.57072    39893.952 
   70400    305.63278   -1387.9741    433.39326    421.99044    738.57858    39893.952 
   70500    292.10751   -1353.8954    463.57198    425.33002    1093.3526    39893.952 
   70600    298.05836   -1336.1776    447.65833    453.93674    519.29051    39893.952 
   70700    288.27149   -1316.9689    478.43285    459.83994    429.74501    39893.952 
   70800    304.49885   -1360.9887    448.01932    458.49464    347.14176    39893.952 
   70900    301.02889   -1324.3914    455.12401    486.56796    200.30409    39893.952 
   71000    308.62333   -1327.8297    441.77861    503.98966    145.39884    39893.952 
   71100    302.67831   -1350.3147    450.84252    463.79217    158.70807    39893.952 
   71200    298.13587   -1371.6126    452.42484    423.61743    314.60334    39893.952 
   71300    300.02885   -1406.9922    436.36032    380.69922   -595.49302    39893.952 
   71400    300.87302   -1403.9203    439.84083    391.05382   -687.66477    39893.952 
   71500    303.04171   -1356.6621    438.00721    446.24618   -675.49312    39893.952 
   71600    293.32076   -1326.5067    471.76949    466.38063   -515.91098    39893.952 
   71700    292.67624   -1334.1448    445.57324    429.64338   -608.49952    39893.952 
   71800    300.52819   -1373.4694    466.20532    446.31612   -600.25812    39893.952 
   71900    299.62985   -1378.4989    448.70196    419.73708   -586.34231    39893.952 
   72000    299.52583   -1355.1449    438.25053    432.17118    407.39377    39893.952 
   72100    298.87147   -1326.9299    451.93313    471.12157   -56.900826    39893.952 
   72200    303.88802   -1338.8686    435.74781    465.59209    383.15678    39893.952 
   72300    302.00132   -1387.5496    464.27996    436.94554    276.29418    39893.952 
   72400    305.33216   -1390.7767    467.57244    452.01303   -9.6639078    39893.952 
   72500    294.95361   -1398.8361    419.18546    348.82163    -379.5516    39893.952 
   72600    301.34533   -1379.9101    435.77203    413.12254   -268.44856    39893.952 
   72700    307.73831   -1394.7844    461.10268     452.3728   -368.14319    39893.952 
   72800    303.02544    -1348.557    421.91531     438.1861   -19.895567    39893.952 
   72900    288.69017   -1371.0568    426.92587    356.13076   -68.953062    39893.952 
   73000    294.47913   -1384.8261    442.26798    383.77705    374.32476    39893.952 
   73100    306.82958   -1390.0993    456.70166    448.56405    70.279463    39893.952 
   73200    290.58483   -1415.7596    427.46679    320.50237    67.948242    39893.952 
   73300    285.70634   -1391.7417    462.24204     357.3229    567.19468    39893.952 
   73400    294.97323   -1375.0752    454.28364     407.7691    433.00165    39893.952 
   73500    298.22663   -1381.3172     446.9217    408.81848    499.92131    39893.952 
   73600    309.81292    -1385.909    461.09929    470.58891     194.6104    39893.952 
   73700     303.5878   -1373.0493    433.82041    428.13179    -122.3744    39893.952 
   73800    293.04846   -1379.1653    451.11736    391.84356   -329.02908    39893.952 
   73900    292.09719    -1399.216    419.35526    335.74619   -496.41448    39893.952 
   74000    312.64372   -1381.0883     414.1505    441.21074    17.417284    39893.952 
   74100    302.25635   -1414.9256    443.75979    390.19803   -100.35813    39893.952 
   74200    294.60243    -1389.862     441.0384    378.06693   -172.35105    39893.952 
   74300    297.06835   -1410.9303    461.24647    388.31318   -565.79355    39893.952 
   74400    314.81415   -1377.1032    433.96998    474.79101   -13.538612    39893.952 
   74500    303.69411   -1406.9654    431.23836    392.11246    25.537912    39893.952 
   74600    299.13102   -1364.7818    420.37687    402.88243    177.13427    39893.952 
   74700    306.39098   -1375.6629    437.76204    442.08533   -140.15326    39893.952 
   74800    298.68418   -1398.8527    447.02996    393.45206   -76.962179    39893.952 
   74900    298.02424   -1417.5569    444.73376    369.47918     347.0189    39893.952 
   75000    304.36788   -1394.3473    460.98867     437.5155    305.77834    39893.952 
   75100    297.47031   -1395.4072    441.45515     385.8554    238.35908    39893.952 
   75200    296.45002   -1427.0167    436.46057    344.65595   -166.39771    39893.952 
   75300    296.20851   -1407.0733    425.27329    352.32428   -358.47844    39893.952 
   75400    303.78978   -1371.2679     435.7048     432.7073   -862.16421    39893.952 
   75500    302.85727   -1353.4891    443.33229    453.91355   -1046.4001    39893.952 
   75600    302.62131   -1377.0331    411.73273    397.70727   -980.79374    39893.952 
   75700    301.85798   -1349.5853     435.8823    445.86657    17.637966    39893.952 
   75800    298.03109   -1390.4923    458.57434    410.41529    55.465542    39893.952 
   75900    288.10359   -1409.2283    442.51239    330.90377   -283.89366    39893.952 
   76000    302.08277   -1383.4122     442.0585     419.2283    -134.7377    39893.952 
   76100    304.79667   -1370.5379    461.40208     463.6696   -373.20164    39893.952 
   76200    313.59705   -1381.4204    440.86431    471.88631   -512.30518    39893.952 
   76300    293.75664   -1319.5339    456.50461    460.05179   -376.84805    39893.952 
   76400    303.17001    -1346.427    444.11431    463.16629   -999.86502    39893.952 
   76500    306.09279   -1335.1316     453.7635    497.27511     -503.453    39893.952 
   76600    299.83008   -1364.8488    440.30408    425.89117    -233.0768    39893.952 
   76700     302.0463   -1330.5185    444.35502    474.25423   -396.83944    39893.952 
   76800    301.13543   -1373.3499    484.77936     467.7446    164.47549    39893.952 
   76900    310.08224   -1356.3272    451.84304     492.1275    469.06594    39893.952 
   77000    307.64187   -1363.6521    460.60231    482.57044   -239.27979    39893.952 
   77100    292.72958   -1361.8032    444.03247    400.68441   -185.31663    39893.952 
   77200    305.24946   -1348.1335    441.57249    468.28375   -50.878275    39893.952 
   77300     307.8853   -1373.4431    447.90642    461.17996    447.70348    39893.952 
   77400    295.47939   -1382.3836    447.96803    396.42479    351.93481    39893.952 
   77500    300.93713   -1355.7439    455.77266    455.45078    330.71947    39893.952 
   77600    299.95034   -1323.9334    505.68587    532.72998    520.57888    39893.952 
   77700    296.80594   -1343.0177    456.40909    450.20652   -150.54818    39893.952 
   77800    300.45873   -1369.6486    443.68339    427.30215    91.824294    39893.952 
   77900     287.6355   -1399.6757    435.46762    331.30331   -128.75384    39893.952 
   78000    299.90409   -1360.8986    444.30717    434.17784    572.75969    39893.952 
   78100     290.0128   -1376.6175    452.76436    382.36568    285.35138    39893.952 
   78200    299.67968   -1381.2624    471.64778    440.14385    49.830333    39893.952 
   78300    303.96884   -1342.3982    447.21722    473.89589   -31.508978    39893.952 
   78400    308.64161   -1406.2947    464.44007    448.26842    207.97756    39893.952 
   78500    297.56506   -1381.1349    472.12783    431.22712   -335.18983    39893.952 
   78600    292.86096   -1373.0331    462.49125    408.50503   -277.74237    39893.952 
   78700    294.73536   -1384.6682    470.68133    413.50233   -349.91554    39893.952 
   78800    305.07061   -1433.4251    449.88656    390.50073   -24.951161    39893.952 
   78900    291.31493   -1448.9856    441.30564    304.40363    514.56695    39893.952 
   79000    300.13833   -1399.0634    430.98748    383.74825    723.23491    39893.952 
   79100    299.34812   -1428.9956    469.27834     388.5479    384.59854    39893.952 
   79200    305.00077   -1452.3171    450.80943    372.21706    434.92193    39893.952 
   79300    306.34116   -1462.9142    426.15345    343.00108     253.7941    39893.952 
   79400    292.04443   -1416.3067    457.32495    356.38753   -477.22658    39893.952 
   79500    294.49658   -1412.4193    466.34779    380.34222   -639.49624    39893.952 
   79600    286.29569   -1434.3551     479.5779    334.69974   -807.74846    39893.952 
   79700    287.50003   -1400.2004    458.23302    352.93391   -620.45347    39893.952 
   79800    288.66269   -1442.5778    468.21384    325.77397    -671.8726    39893.952 
   79900    295.37683   -1410.3055    445.50044    365.57338   -776.22198    39893.952 
   80000    295.90996   -1465.8753    444.66185    311.56622   -759.22915    39893.952 
   80100    297.96142   -1452.6564    476.13363    365.49667   -687.85213    39893.952 
   80200    301.95145   -1446.8476     446.4384    359.58138   -682.72547    39893.952 
   80300     295.9466    -1488.447    465.73666    310.23427   -1008.6871    39893.952 
   80400    303.69057   -1468.7524    449.18964    348.26074   -602.98642    39893.952 
   80500    292.52087   -1457.7355     434.9715    294.75117   -490.02622    39893.952 
   80600    304.90822    -1478.741    444.38478    338.95157   -69.529761    39893.952 
   80700    302.81476   -1487.5196    431.58735    307.94658    270.61556    39893.952 
   80800    299.29146   -1481.0317    449.34006    316.31826    527.13259    39893.952 
   80900    312.87233   -1488.2253    461.61212    382.56507    616.10672    39893.952 
   81000    306.44313   -1420.8964    451.55637    410.88103    175.81431    39893.952 
   81100    299.03233    -1452.214    458.24528    352.87402   -178.44992    39893.952 
   81200    291.06993   -1449.3428    438.58486    300.22218   -124.42825    39893.952 
   81300    310.43606   -1413.0535    452.49412     437.6459   -327.76099    39893.952 
   81400    287.06765   -1449.0339    421.99477     265.9147   -658.54315    39893.952 
   81500    291.32663   -1432.3467    459.29784    339.08745   -243.20617    39893.952 
   81600    303.41252   -1420.6862    433.26496    379.14997    54.384422    39893.952 
   81700    295.26227   -1400.8713    439.90578    368.89689    -4.954374    39893.952 
   81800    289.02567   -1435.1489    469.35413    335.97801   -26.289359    39893.952 
   81900    305.46227   -1389.6599    445.19464    431.33799    -330.7852    39893.952 
   82000    301.92879   -1422.3996    446.92797     384.4168   -262.09277    39893.952 
   82100    293.09989   -1400.5983    448.69123    368.21601   -310.45466    39893.952 
   82200     287.2473   -1420.7298    451.54388    324.57708   -103.38156    39893.952 
   82300     299.8135   -1419.1555    462.88113    394.08684   -17.730258    39893.952 
   82400    301.42685   -1419.5327    430.03362    368.12866    142.77467    39893.952 
   82500    301.40215   -1426.5023    468.22654    399.24069   -109.36266    39893.952 
   82600    308.13804   -1422.1604    447.78866    413.48321   -174.98066    39893.952 
   82700    296.80869   -1386.7424    455.54384    405.62895    348.04531    39893.952 
   82800    298.96809    -1392.587    464.90051    418.86699    439.15629    39893.952 
   82900    298.75737   -1372.8147    446.37452    419.16418    151.78622    39893.952 
   83000    296.25219   -1393.5717    442.20066       382.95   -63.534683    39893.952 
   83100    298.50696   -1392.8569    459.04675    410.66642    377.55984    39893.952 
   83200    303.98177   -1366.1299    436.05992    439.06512    34.287649    39893.952 
   83300    303.01752   -1412.9234    452.64878    404.51751     486.5451    39893.952 
   83400    302.94812    -1395.776     459.9818    428.68535    364.41157    39893.952 
   83500    299.97453   -1374.1233    468.38601    445.34917   -92.808703    39893.952 
   83600    302.92816   -1373.4284    470.85661    461.81783   -243.27644    39893.952 
   83700    292.27538   -1395.1763    465.42469    386.65789   -215.95991    39893.952 
   83800    290.03764   -1329.9237    465.61191    442.01893   -518.62652    39893.952 
   83900    307.60086   -1346.4737    461.93452    500.89631   -191.37794    39893.952 
   84000    299.04059   -1351.9507    470.87881    465.80809   -50.903924    39893.952 
   84100    326.93625   -1398.1763    440.44026    514.78608   -85.970781    39893.952 
   84200     310.0038   -1362.0224    433.77811    468.01408    202.44242    39893.952 
   84300    305.54947   -1375.8597    441.83109    442.16746    371.73782    39893.952 
   84400    305.59911   -1409.8908    448.31426    414.84312    425.25145    39893.952 
   84500    297.08837   -1391.1065    437.67948    384.66013    596.06055    39893.952 
   84600    307.48568    -1374.556    452.35119    462.71191    92.920597    39893.952 
   84700    298.89714   -1412.7554    479.63705    413.11551    9.1600451    39893.952 
   84800    301.26897   -1402.3891    459.53293    414.06044   -85.060665    39893.952 
   84900    293.62842   -1414.6574    461.36824    369.21442    63.513887    39893.952 
   85000    300.15788    -1436.213    449.27765    364.97691    182.93493    39893.952 
   85100    302.28272   -1460.1248    433.73743    335.09518   -313.65076    39893.952 
   85200    293.97655   -1426.1201    451.41969    349.37116   -399.29099    39893.952 
   85300    294.67727   -1409.2121    443.57752    361.59297   -366.80226    39893.952 
   85400    298.15112   -1378.7491    465.86771    429.99241   -698.35275    39893.952 
   85500    294.07438   -1381.8303    446.46338    389.14522    131.37151    39893.952 
   85600    295.44723   -1425.8852    437.09006    341.90037   -112.95869    39893.952 
   85700    299.45709   -1405.0434    488.19569    431.90822   -106.68449    39893.952 
   85800    286.42803   -1378.0805    435.08964    347.08216   -435.14762    39893.952 
   85900    303.13241    -1379.827    468.52279    454.00541     383.2919    39893.952 
   86000    304.04347   -1361.5795    468.41489    476.24839   -182.78911    39893.952 
   86100    299.89279   -1376.1508    433.57546    408.14302    -45.49747    39893.952 
   86200    300.41479   -1416.3711      422.227    358.92531   -491.44189    39893.952 
   86300     297.5935   -1381.4178    458.67092    417.61546   -268.47566    39893.952 
   86400    297.01133   -1386.9832    462.49168     413.2487   -681.20367    39893.952 
   86500    301.54613   -1384.0618    451.35121    425.45442   -481.00989    39893.952 
   86600    302.02734   -1386.8834    469.40504    442.85393   -447.84436    39893.952 
   86700    304.77121   -1399.9119    457.29686    430.07573   -485.11817    39893.952 
   86800    294.07556   -1377.9906    477.49031     424.0172   -576.90426    39893.952 
   86900    288.11551   -1399.7822    453.46965    351.36086   -322.69571    39893.952 
   87000    302.47098   -1387.6465    446.65289    421.33687   -226.45225    39893.952 
   87100     301.3314   -1400.7647    467.25035    423.68343    -190.6404    39893.952 
   87200    303.72842   -1391.9434    450.29852     426.3492   -208.55413    39893.952 
   87300    301.72926   -1373.7878    477.03683    462.23886   -380.80927    39893.952 
   87400     298.1697   -1385.9824    469.49472    426.46981   -313.11391    39893.952 
   87500    299.03592   -1373.3218    457.56125    431.09842   -32.149545    39893.952 
   87600    294.44902   -1388.0565    451.66483    389.80792   -181.61218    39893.952 
   87700     306.6787   -1415.2897    457.44534    423.43777     69.53682    39893.952 
   87800    298.90011    -1382.914    471.87858    435.21194    120.05993    39893.952 
   87900    290.84316    -1395.723     463.5989    377.83467    246.35311    39893.952 
   88000    316.53025   -1380.7378    438.55382     483.4695    461.89819    39893.952 
   88100    307.77896   -1414.0869    452.77109    424.92186    585.33042    39893.952 
   88200    293.34617   -1409.0851    470.92306    383.07025    328.41837    39893.952 
   88300    312.52984   -1424.9399    467.97345    450.66917   -406.23171    39893.952 
   88400    297.09091   -1409.3474    441.46477    370.21604   -234.32672    39893.952 
   88500    306.59494   -1370.1476    456.27571    467.03296     21.82048    39893.952 
   88600     293.8431   -1436.1212    467.73385    355.08316   -807.66096    39893.952 
   88700    286.87371    -1428.711    455.30996    318.67923    -428.3989    39893.952 
   88800    295.78785   -1433.7802    458.88786    357.33731   -326.78595    39893.952 
   88900    303.95272   -1402.2785    466.98783     433.7136    96.682418    39893.952 
   89000    296.05371   -1419.9673    482.91296    396.37277   -23.712007    39893.952 
   89100    301.05079   -1415.0172     471.7786    412.69537    377.75017    39893.952 
   89200    303.67396   -1405.7428    465.18149    427.18744    563.42813    39893.952 
   89300    303.19225   -1441.2349    478.05021    402.39438    864.08903    39893.952 
   89400    296.93882   -1434.5687    441.31988    344.16484    495.82088    39893.952 
   89500      301.347   -1452.1594    465.56451    370.67316    489.12845    39893.952 
   89600    296.11613   -1440.3492    469.84331    363.20231    457.93112    39893.952 
   89700    299.64806   -1418.8358    469.90885    400.68909    206.35338    39893.952 
   89800    306.49191    -1412.052    461.26806    429.65685    479.66739    39893.952 
   89900    286.32399   -1420.5588    465.48866    334.53422   -543.46728    39893.952 
   90000    294.18215    -1395.475     460.9333    390.45583    249.47456    39893.952 
   90100    292.76715   -1387.8248    445.81362     376.6132    351.07799    39893.952 
   90200    304.59763   -1403.3757    451.65197     420.1852    395.64213    39893.952 
   90300     307.3324   -1414.2162    486.08541    456.09553     629.5427    39893.952 
   90400    287.10097   -1423.8703    424.85673    294.09037    239.94507    39893.952 
   90500    296.38793   -1439.1036    471.38283    367.21165    92.926367    39893.952 
   90600    296.72453   -1426.7133    464.60581    374.34096   -34.274194    39893.952 
   90700    303.08598    -1454.584    458.00064    368.51708   -9.1580999    39893.952 
   90800    303.05913   -1399.5915    471.19997    436.58798    219.21587    39893.952 
   90900    298.19033   -1419.5331    464.69982     388.2172   -334.16297    39893.952 
   91000    294.81471   -1410.3751    484.54953    402.02111    403.59601    39893.952 
   91100    296.89179   -1416.8843    483.49071    403.80819    4.1015692    39893.952 
[...]
  984700    299.50759   -1489.2333    440.79917    300.54919    22.177654    39893.952 
  984800    303.47819    -1462.434     505.7519    410.18489   -9.5191666    39893.952 
  984900    298.91765   -1471.4827     470.7447    345.58823   -160.47897    39893.952 
  985000    296.19517   -1415.5102    496.95932    415.51331   -312.97325    39893.952 
  985100    290.83259   -1456.4265    479.62311    333.10775    113.45776    39893.952 
  985200    303.64578   -1433.8904    495.05685    428.78823   -526.04922    39893.952 
  985300    286.43356   -1421.8961     475.9212      344.123   -293.56226    39893.952 
  985400    296.86786   -1456.8104     485.0331    365.31671    180.21109    39893.952 
  985500    303.77553   -1451.2419    465.56387     382.5281    560.98794    39893.952 
  985600    311.05814   -1472.0901    493.63776    422.55481     822.7676    39893.952 
  985700    300.33828   -1469.7838    488.28294    371.22397     791.1997    39893.952 
  985800    307.58224   -1479.6261    471.30897     377.0345     490.0067    39893.952 
  985900    294.72554   -1450.2608     499.9309    377.11508   -118.41941    39893.952 
  986000    299.07044   -1461.0931    481.31517    367.23655    344.88453    39893.952 
  986100    297.84755    -1474.576    477.59273    344.52328   -251.54408    39893.952 
  986200    298.97953   -1469.8329    491.70658    368.47866   -151.19497    39893.952 
  986300    295.04144   -1434.7297    475.71753    369.85568   -218.73333    39893.952 
  986400    291.14512   -1437.7531    477.87704     351.4427   -25.300767    39893.952 
  986500    306.95213   -1448.7719    488.81752    422.55928 -0.073217513    39893.952 
  986600    288.62761   -1450.1145    484.96934    334.83473   -201.86859    39893.952 
  986700     301.2229   -1512.9214    471.10899    314.89678    -256.8003    39893.952 
  986800    307.99839   -1468.3857     463.7061    382.54637   -116.92819    39893.952 
  986900    296.60104   -1483.1721     444.8879    297.60804   -715.30638    39893.952 
  987000     297.4559   -1482.5234     493.9693    351.18846   -522.70002    39893.952 
  987100    298.00391   -1464.2413    449.99604    327.96555   -929.18138    39893.952 
  987200    301.99708   -1443.8282    473.17817    389.54602   -1029.7562    39893.952 
  987300     301.3804   -1443.4094     496.7909    410.80007   -994.03913    39893.952 
  987400    301.01766    -1470.228    451.81363    337.37042   -406.69614    39893.952 
  987500      296.766   -1513.2215    464.02728    287.44098   -147.35421    39893.952 
  987600     292.3414   -1468.0179    480.40292    329.09186   -35.904688    39893.952 
  987700    298.40215   -1484.8671    475.41665    334.55402    5.7786078    39893.952 
  987800    303.86183   -1497.2835    480.29358    351.60502    53.027141    39893.952 
  987900    312.01368   -1478.9481    461.01558    387.37833    133.61385    39893.952 
  988000    308.63199   -1443.5169    475.25643    421.81925    -147.1404    39893.952 
  988100    293.03124   -1501.8867    461.14767    279.07481   -62.278154    39893.952 
  988200    301.22288   -1437.4976    459.60849    378.81993   -335.43452    39893.952 
  988300    305.61162   -1508.1093    480.41282    348.77949    153.47345    39893.952 
  988400    307.52621   -1480.0242    473.65078    378.72583    339.87116    39893.952 
  988500    300.62839   -1481.3146    463.05904    335.77592    92.537537    39893.952 
  988600    297.61378   -1457.6937    494.94197    377.70197    96.433276    39893.952 
  988700    299.23593   -1483.4208    494.73073    359.06978    365.41756    39893.952 
  988800    310.10201   -1474.7789    471.82453    393.74626    491.65517    39893.952 
  988900    302.12672   -1467.9867    492.85272    385.64603    660.25042    39893.952 
  989000    302.38291   -1481.3371     477.8319    358.42863    442.65148    39893.952 
  989100    305.16936   -1419.8107    469.09325    423.76659    383.83936    39893.952 
  989200    293.09106   -1467.9959      481.823    333.91045   -130.67078    39893.952 
  989300    295.35688   -1448.5852    494.81998    376.52334    508.60114    39893.952 
  989400    290.99933   -1454.1469    482.74435    339.25961    682.62616    39893.952 
  989500    308.57276   -1461.2855    489.75895    418.28636    794.99437    39893.952 
  989600    297.52017   -1438.8658    513.93089    415.09707    566.28615    39893.952 
  989700    293.07027   -1452.6494     495.5724    362.91264    527.13569    39893.952 
  989800    298.80328   -1414.3084    482.25583    413.75862    119.53825    39893.952 
  989900    289.15792   -1468.5888    512.58027    346.35983    413.73796    39893.952 
  990000     305.4473   -1448.5592    470.11718    397.29384    509.13792    39893.952 
  990100    301.54043    -1435.074    458.57783    381.64317    536.68581    39893.952 
  990200    298.77189   -1469.2266    471.04398    347.48719   -273.31053    39893.952 
  990300    300.41021   -1419.0305    484.60563    418.62395   -425.75616    39893.952 
  990400    299.82448   -1465.5694    478.33598    363.17727   -454.60721    39893.952 
  990500    306.15548   -1436.6407    464.61806    406.90286   -438.57849    39893.952 
  990600    313.56452   -1460.5103    484.04407    435.82965   -441.93196    39893.952 
  990700    299.09563   -1452.9772    475.98652    370.13726   -55.252708    39893.952 
  990800    289.83939   -1437.4419    503.47902    371.47486   -269.98698    39893.952 
  990900    309.20042   -1459.2372    479.58627    412.98905    311.14293    39893.952 
  991000    310.93003   -1437.9826    493.30948    455.75698   -172.41462    39893.952 
  991100    308.00704   -1427.3737    493.58141    453.47265   -46.884418    39893.952 
  991200    301.30955   -1396.9832    487.07862    447.19487   -84.610984    39893.952 
  991300    290.11603   -1439.3007    499.80058    367.18363   -137.27562    39893.952 
  991400    297.79458   -1436.1894    473.10588    378.18442   -251.52432    39893.952 
  991500    300.27374   -1430.1691    473.64233    395.90735   -384.09062    39893.952 
  991600    302.61574   -1472.1368    459.61585    350.46154   -106.81821    39893.952 
  991700    297.72796   -1442.2937    495.03382    393.70802    -169.7839    39893.952 
  991800     289.2841   -1423.0979    482.52233    362.36114    444.10092    39893.952 
  991900    301.85088    -1455.407    480.85459    384.98509    576.48543    39893.952 
  992000    290.16671   -1441.2898    492.63592    358.25817    334.12236    39893.952 
  992100    305.73189     -1442.48    497.64966    432.18729    740.44532    39893.952 
  992200    293.85025   -1464.2128    492.04622    351.33608    411.42208    39893.952 
  992300    296.30593   -1475.6633    481.11729    340.01708    360.19078    39893.952 
  992400    295.97835   -1438.6549    489.44963    383.88243    200.87983    39893.952 
  992500    295.38234   -1430.9874    480.76902    380.18485   -473.34601    39893.952 
  992600    302.50798   -1440.0641    479.31635    401.74936    53.200506    39893.952 
  992700    291.70604   -1431.5643    509.30497    391.58585   -777.76413    39893.952 
  992800    300.51888   -1446.4392    469.12336    376.22242   -620.80121    39893.952 
  992900      309.994   -1457.1868    457.02012    396.04747   -466.79602    39893.952 
  993000    303.55744   -1445.3704    478.62464    400.47815    -363.8974    39893.952 
  993100     301.4089   -1449.0435    457.66264    366.16607   -353.95312    39893.952 
  993200    301.25168   -1425.1289    505.86558    437.57548    149.96035    39893.952 
  993300    284.05434   -1468.1853    446.97908    258.17571   -218.74977    39893.952 
  993400     307.7869   -1469.1719    461.54318    378.64467    36.535746    39893.952 
  993500    295.95442   -1455.3658     478.4704    356.08448   -9.6907094    39893.952 
  993600    301.06373   -1451.7521    469.76077    374.00086   -75.966748    39893.952 
  993700     308.2335   -1428.3369    457.26926    417.21728   -105.71456    39893.952 
  993800    307.45824   -1406.2803    505.71416      484.227     77.55976    39893.952 
  993900    295.07594   -1466.2669    477.49171    340.24804     222.4101    39893.952 
  994000    295.40206   -1478.6703    475.23708    327.05887    320.26219    39893.952 
  994100    300.15964   -1443.3677    479.81833    388.37085   -205.29992    39893.952 
  994200    301.19622   -1461.9381    464.38128    359.03218   -67.248812    39893.952 
  994300    302.51631   -1465.2961    471.14161    368.38016   -170.12905    39893.952 
  994400    301.08376   -1463.0034    451.14609    344.22513   -15.030534    39893.952 
  994500    310.50065   -1442.0344    495.50362    451.96541    126.70062    39893.952 
  994600    305.52748   -1464.0801     469.0721    381.08902    287.49291    39893.952 
  994700     304.3268   -1487.0751    446.34445    329.95847     793.7368    39893.952 
  994800    303.06534   -1454.9314    494.58836    404.66447     680.6959    39893.952 
  994900    293.11481   -1487.5677    463.14803    295.77058    35.877259    39893.952 
  995000    298.05509   -1486.7937    462.20694    317.85457    560.65465    39893.952 
  995100    297.53337   -1496.1712    451.63233    295.55264    13.461796    39893.952 
  995200    294.96669   -1502.2733    428.60889    254.86669    280.32298    39893.952 
  995300    307.92525   -1463.0982    498.63102    422.42941    431.09816    39893.952 
  995400    308.95383    -1425.698    489.56953    455.40084    441.45318    39893.952 
  995500    304.39749   -1427.2957    466.41365    410.12546     388.8756    39893.952 
  995600      302.782   -1433.7721    519.76172    449.72096    420.76661    39893.952 
  995700     304.3596   -1425.7693    477.47012    422.53768    513.50094    39893.952 
  995800    298.28314   -1402.5073    489.92599    430.88715    710.72255    39893.952 
  995900    300.56474   -1465.3065    484.15034     372.5887    243.55737    39893.952 
  996000    301.41905   -1433.6064    461.02758    385.01374   -68.725681    39893.952 
  996100    305.37746    -1415.917    493.19582     452.7001   -57.713162    39893.952 
  996200    306.03997   -1433.0053    471.20121     416.6012    156.31572    39893.952 
  996300    302.67973   -1466.2438    464.27512    361.30207    296.33752    39893.952 
  996400    289.62769   -1482.9643    481.95061    303.47061    462.81335    39893.952 
  996500    301.01585   -1473.6517    450.08773    332.21258    131.88477    39893.952 
  996600    292.18665   -1443.3835     448.6271    321.25339    566.62633    39893.952 
  996700    309.54771   -1450.7312    466.71509    410.18798    629.98195    39893.952 
  996800    307.91567   -1469.7696    492.70685    409.79067    489.00852    39893.952 
  996900    294.17927   -1425.4659    484.32895    383.84768     461.1975    39893.952 
  997000    293.11199   -1428.1583    473.10798    365.12723    497.62739    39893.952 
  997100    300.70122   -1449.8018     493.5515    398.10922    424.69654    39893.952 
  997200    303.56375   -1498.9801    479.09076      347.363    833.05666    39893.952 
  997300    303.70044   -1465.4046    461.37491    363.83832    183.79822    39893.952 
  997400    292.57959   -1475.3791    490.52225    332.92282    379.87273    39893.952 
  997500      296.201   -1463.3375      468.376    339.12904    580.36447    39893.952 
  997600    296.98001   -1492.6596    465.39333    310.33282    640.45633    39893.952 
  997700    298.14403   -1448.2624    486.89057    381.47002     299.7953    39893.952 
  997800    300.59407   -1472.5892    473.00951    354.29722    220.88409    39893.952 
  997900    290.50007   -1517.3904     464.3221    255.34518    308.60248    39893.952 
  998000    305.03912    -1483.036    445.71911    336.58051    738.30055    39893.952 
  998100    286.88385   -1476.7313    517.02737    332.42202    647.65388    39893.952 
  998200    306.30197   -1478.0283    494.39453    395.95152    573.20461    39893.952 
  998300    297.65351   -1475.4378     488.7983    353.99312    837.79291    39893.952 
  998400    302.58322   -1458.4963    471.70252    376.04222     759.2753    39893.952 
  998500    296.67768    -1475.633    453.30758    313.91204    239.69922    39893.952 
  998600    287.93038   -1442.9914     498.8556    352.70382    535.83514    39893.952 
  998700    306.31692   -1489.4619    483.80812    373.99888    327.24672    39893.952 
  998800    297.59338   -1469.6174    482.50714    353.25154    201.65839    39893.952 
  998900    317.31714   -1477.2558    455.55113    407.49298    119.85445    39893.952 
  999000    299.85481   -1477.1988    476.46924    349.81773   -94.035086    39893.952 
  999100    298.81782   -1476.5726    487.44839    356.75242   -522.88298    39893.952 
  999200    307.88333   -1512.8413    452.42475    326.29118   -122.24138    39893.952 
  999300    298.10166   -1466.8129    459.68433    335.52249   -54.915486    39893.952 
  999400    296.68316   -1478.4189    481.95362    339.79685    11.869525    39893.952 
  999500    302.76304   -1412.0973    475.11928    426.66787    396.69418    39893.952 
  999600     293.2969   -1454.3443    495.96361    362.62976     186.5991    39893.952 
  999700    312.23403    -1443.164    471.58702    434.72637    411.30211    39893.952 
  999800    272.15618   -1433.8348    522.88894    314.84662    578.19982    39893.952 
  999900    302.31787   -1442.5927    492.19409    411.24229    653.83638    39893.952 
 1000000    286.60769   -1461.4392    490.97374    320.41675    146.07129    39893.952 
 1000100    309.49016   -1450.4744    488.81472    432.28526     580.1697    39893.952 
 1000200    283.99825   -1454.3736    477.25954    302.01519   -123.93808    39893.952 
 1000300    291.28541   -1473.3392    501.20889    339.82032    66.279142    39893.952 
 1000400    297.69705   -1471.3056    451.01299    320.53609   -178.61144    39893.952 
 1000500    300.71555   -1481.0585    464.25294     337.6185   -323.22613    39893.952 
 1000600    285.91122   -1465.2051    448.75091    271.29103   -296.50268    39893.952 
 1000700    299.81628   -1416.6373    476.24514    409.98153    -16.17726    39893.952 
 1000800    303.09838    -1426.837    490.89884     429.2182    104.00489    39893.952 
 1000900    304.09489   -1424.7462    481.73785    426.63631    200.99145    39893.952 
 1001000    307.64341   -1428.1229    466.80953    424.31379   -90.788269    39893.952 
 1001100    302.09468   -1431.7775    489.85119    418.70927    91.605832    39893.952 
 1001200    295.14144   -1436.9583    473.44256    365.80255   -121.40885    39893.952 
 1001300    296.26494   -1430.2641     478.1667    382.28108   -809.47822    39893.952 
 1001400    293.06163    -1451.442    459.62663    328.13541   -78.389771    39893.952 
 1001500    305.80826   -1487.8625    466.02128    355.52044   -256.83164    39893.952 
 1001600    293.24554   -1461.8224     463.0485    322.00512   -837.27771    39893.952 
 1001700    296.42785   -1479.2178    461.62395    317.51842   -438.25689    39893.952 
 1001800    297.97897   -1492.7454    464.49083     313.8439   -170.60331    39893.952 
 1001900    289.37679   -1475.2484    466.17674    294.28258   -728.08419    39893.952 
 1002000    297.60739   -1544.5512    465.93406    261.80776   -755.06865    39893.952 
 1002100    291.67961   -1535.8834    469.41492    247.25761   -1164.7701    39893.952 
 1002200    297.86137   -1530.7683    464.16527    274.96577   -605.25785    39893.952 
 1002300    303.57794   -1514.5107    476.37347      329.179   -144.92262    39893.952 
 1002400    298.97821   -1539.7154    445.05584    251.93947   -514.07713    39893.952 
 1002500    297.44965    -1549.349    449.83704    240.20251   -880.38803    39893.952 
 1002600    304.71175   -1482.7433    479.96061    369.64025    -345.3978    39893.952 
 1002700    305.62042   -1528.1139    476.59536    324.99703   -217.78182    39893.952 
 1002800    297.44073   -1548.5638    454.87343    245.98387   -144.78682    39893.952 
 1002900    302.65767   -1561.0204     482.5129    284.66381   -142.35761    39893.952 
 1003000    306.40027   -1569.9627     453.8909    263.95622   -227.38808    39893.952 
 1003100    312.00058   -1567.7689    465.84574    303.32871    56.023002    39893.952 
 1003200    292.75166   -1506.3778    441.85033    254.02719    53.324555    39893.952 
 1003300    304.21914   -1516.6954    465.65485    319.16371    886.92363    39893.952 
 1003400    303.14106   -1524.7859    479.99076    320.55336   -84.013557    39893.952 
 1003500    303.17643   -1464.6404    481.84198     382.7094   -37.616908    39893.952 
 1003600    293.93472   -1463.6614    473.72244    333.94415   -303.35632    39893.952 
 1003700    297.28868   -1457.8845     468.7451    349.85003   -299.11154    39893.952 
 1003800    307.21187   -1501.2903    496.07626    378.46944    -80.41999    39893.952 
 1003900    300.81868   -1508.4396    476.71195    323.16092   -124.12099    39893.952 
 1004000    310.20589   -1472.5084    458.48276    383.14286   -55.307199    39893.952 
 1004100    304.58646   -1520.3095    473.14938    324.69849    106.43505    39893.952 
 1004200    300.06639   -1544.1639    492.02031    299.35668    182.90964    39893.952 
 1004300    302.74816   -1532.6879    476.72412    307.61515    403.90249    39893.952 
 1004400    293.07139   -1477.6202    482.86454    325.23906    299.81925    39893.952 
 1004500    296.73484   -1514.0613    495.13995    317.57353    189.01829    39893.952 
 1004600    294.56875   -1482.9548    482.69864    326.48268   -209.77526    39893.952 
 1004700    292.77246   -1479.7571    472.92138    311.81268   -711.29546    39893.952 
 1004800     305.4295   -1467.4365    484.72973    392.94886    -816.3751    39893.952 
 1004900    293.47708   -1497.3256    465.59363    290.08996   -942.29694    39893.952 
 1005000    297.29868   -1483.3601    467.73944    323.41374   -717.78017    39893.952 
 1005100    308.32941   -1467.1975    511.71237    433.23173    -438.5799    39893.952 
 1005200    296.31254    -1489.698    476.43808    321.33295   -535.09621    39893.952 
 1005300     299.0453   -1475.7566    487.31343    358.45806   -377.31319    39893.952 
 1005400    299.16147   -1423.9191    474.98923    398.49456    -238.4095    39893.952 
 1005500     303.4483   -1445.3177    493.79478    415.20944   -558.53942    39893.952 
 1005600    298.69055   -1450.0329    480.28241    375.55291   -52.293376    39893.952 
 1005700    305.02546   -1473.3845    477.72683    378.17819    144.61384    39893.952 
 1005728    295.98112   -1433.9656    475.20445    374.33897   -105.63596    39893.952 
Loop time of 611.255 on 32 procs for 1000000 steps with 1512 atoms

Performance: 141.349 ns/day, 0.170 hours/ns, 1635.980 timesteps/s
100.0% CPU use with 32 MPI tasks x no OpenMP threads

MPI task timing breakdown:
Section |  min time  |  avg time  |  max time  |%varavg| %total
---------------------------------------------------------------
Pair    | 205.59     | 261.73     | 304.87     | 167.2 | 42.82
Bond    | 1.2935     | 1.5492     | 1.7487     |   8.3 |  0.25
Neigh   | 39.972     | 40.047     | 40.128     |   0.8 |  6.55
Comm    | 252.89     | 295.97     | 351.76     | 156.6 | 48.42
Output  | 0.3923     | 0.40945    | 0.8754     |  13.1 |  0.07
Modify  | 8.328      | 8.8091     | 9.4131     |  10.4 |  1.44
Other   |            | 2.731      |            |       |  0.45

Nlocal:        47.2500 ave          85 max           8 min
Histogram: 2 1 5 5 4 4 3 2 3 3
Nghost:        1909.19 ave        2033 max        1782 min
Histogram: 7 5 4 0 0 0 0 2 7 7
Neighs:        5249.97 ave       10104 max         505 min
Histogram: 3 3 5 4 3 1 4 1 3 5

Total # of neighbors = 167999
Ave neighs/atom = 111.11045
Ave special neighs/atom = 2.0238095
Neighbor list builds = 49782
Dangerous builds = 0
The system volume is 39893.9520293228
Lattice vectors
34.1692689383328 0 0
0 34.1692689383328 0
0 0 34.1692689383328
Total wall time: 0:10:16
