LAMMPS data file
 1511 atoms
 1010 bonds
 516 angles
 14 dihedrals
 1 impropers
 7 atom types
 7 bond types
 4 angle types
 3 dihedral types
 1 improper types
 0 15 xlo xhi
 0 15 ylo yhi
 0 15 zlo zhi
 0 0 0 xy xz yz

# Atom types
#
# 1 O_2
# 2 S_3
# 3 O_3
# 4 N_2
# 5 C_3
# 6 H__HB
# 7 H_

# Bond Coeffs
#
# 1 O_2*S_3
# 2 S_3*O_3
# 3 S_3*C_3
# 4 O_3*N_2
# 5 N_2*H__HB
# 6 C_3*H_
# 7 O_3*H__HB

# Angle Coeffs
#
# 1 S_3
# 2 O_3
# 3 N_2
# 4 C_3

# Dihedral Coeffs
#
# 1 A1
# 2 A2
# 3 B1

# Inversion Coeffs
#
# 1 1

 Masses

 1 16
 2 32.06
 3 16
 4 14.01
 5 12.01
 6 1.01
 7 1.01

 Atoms # full

1 1 1 0 1.54617049570233 6.22442796043213 8.32389364975577
2 1 1 0 2.93369233847526 4.03294780950447 8.25290474979183
3 1 2 0 1.96857016297909 4.98445570356634 7.42130695403749
4 1 3 0 2.78081557943604 5.53345927383895 6.04280073596206
5 1 4 0 2.25329341980847 6.44078273398763 5.26823636822643
6 1 5 0 0.495776838006691 4.06825605631273 6.93387473486328
7 1 6 0 1.38092162444702 6.79452237386363 5.50439694461086
8 1 7 0 -0.0200598041284206 3.70589921738835 7.82326141112704
9 1 7 0 0.783470986066047 3.22081473326681 6.31153762270735
10 1 7 0 -0.170690030480617 4.7211218667526 6.36994104481859
11 1 6 0 2.85773973182375 6.91251606818088 4.15499545660754
12 2 6 0 -0.00156976005993781 5.45075654791668 12.1934113092721
13 2 3 0 0.958430239940062 5.45075654791668 12.1934113092721
14 2 6 0 1.19843023994006 4.52075654791668 12.1934113092721
15 3 6 0 6.07080717964098 5.84750026156194 6.52769815991633
16 3 3 0 7.03080717964098 5.84750026156194 6.52769815991633
17 3 6 0 7.27080717964098 4.91750026156194 6.52769815991633
18 4 6 0 13.2242752674222 2.96329682035372 2.06209475873038
19 4 3 0 14.1842752674222 2.96329682035372 2.06209475873038
20 4 6 0 14.4242752674222 2.03329682035372 2.06209475873038
21 5 6 0 3.95465739464387 7.04007760196924 1.62874100147747
22 5 3 0 4.91465739464387 7.04007760196924 1.62874100147747
23 5 6 0 5.15465739464387 6.11007760196924 1.62874100147747
24 6 6 0 0.547987702740356 13.6734101285134 12.2252067632508
25 6 3 0 1.50798770274036 13.6734101285134 12.2252067632508
26 6 6 0 1.74798770274036 12.7434101285134 12.2252067632508
27 7 6 0 6.44080666752532 2.94968037324958 2.70890944520943
28 7 3 0 7.40080666752532 2.94968037324958 2.70890944520943
29 7 6 0 7.64080666752532 2.01968037324958 2.70890944520943
30 8 6 0 13.9554654881079 2.1398829253763 12.9466438083909
31 8 3 0 14.9154654881079 2.1398829253763 12.9466438083909
32 8 6 0 15.1554654881079 1.2098829253763 12.9466438083909
33 9 6 0 7.78578326149844 1.70338260167278 12.207670774078
34 9 3 0 8.74578326149844 1.70338260167278 12.207670774078
35 9 6 0 8.98578326149844 0.773382601672783 12.207670774078
36 10 6 0 6.6292861201521 12.2869833888859 13.734256317839
37 10 3 0 7.5892861201521 12.2869833888859 13.734256317839
38 10 6 0 7.8292861201521 11.3569833888859 13.734256317839
39 11 6 0 13.4452129485738 3.01594524452463 7.08434189320542
40 11 3 0 14.4052129485738 3.01594524452463 7.08434189320542
41 11 6 0 14.6452129485738 2.08594524452463 7.08434189320542
42 12 6 0 2.47114715326577 14.8056035364885 0.89198172558099
43 12 3 0 3.43114715326577 14.8056035364885 0.89198172558099
44 12 6 0 3.67114715326577 13.8756035364885 0.89198172558099
45 13 6 0 10.9588590943906 8.70595825062133 13.5915885376744
46 13 3 0 11.9188590943906 8.70595825062133 13.5915885376744
47 13 6 0 12.1588590943906 7.77595825062133 13.5915885376744
48 14 6 0 1.70970854742453 5.19235922646709 12.4736948974896
49 14 3 0 2.66970854742453 5.19235922646709 12.4736948974896
50 14 6 0 2.90970854742453 4.26235922646709 12.4736948974896
51 15 6 0 9.90786855152808 1.13510915934108 2.39964607637376
52 15 3 0 10.8678685515281 1.13510915934108 2.39964607637376
53 15 6 0 11.1078685515281 0.205109159341082 2.39964607637376
54 16 6 0 2.22414900010452 6.00367223768495 0.600756149506196
55 16 3 0 3.18414900010452 6.00367223768495 0.600756149506196
56 16 6 0 3.42414900010452 5.07367223768495 0.600756149506196
57 17 6 0 5.80039344306104 8.3757745001372 0.427890750579536
58 17 3 0 6.76039344306104 8.3757745001372 0.427890750579536
59 17 6 0 7.00039344306104 7.44577450013719 0.427890750579536
60 18 6 0 10.0497184674907 0.777425844399259 6.54723659623414
61 18 3 0 11.0097184674907 0.777425844399259 6.54723659623414
62 18 6 0 11.2497184674907 -0.152574155600742 6.54723659623414
63 19 6 0 2.72584703911096 13.2569666688237 2.50884970882908
64 19 3 0 3.68584703911096 13.2569666688237 2.50884970882908
65 19 6 0 3.92584703911096 12.3269666688237 2.50884970882908
66 20 6 0 0.726008143248037 5.46375350951217 0.872926471056417
67 20 3 0 1.68600814324804 5.46375350951217 0.872926471056417
68 20 6 0 1.92600814324804 4.53375350951217 0.872926471056417
69 21 6 0 13.9633278285339 6.00307629135437 8.53671810007654
70 21 3 0 14.9233278285339 6.00307629135437 8.53671810007654
71 21 6 0 15.1633278285339 5.07307629135437 8.53671810007654
72 22 6 0 5.36231663005427 7.38685905043036 8.30638368031941
73 22 3 0 6.32231663005427 7.38685905043036 8.30638368031941
74 22 6 0 6.56231663005427 6.45685905043036 8.30638368031941
75 23 6 0 7.80951881010085 3.04905883659609 0.0176580715924501
76 23 3 0 8.76951881010085 3.04905883659609 0.0176580715924501
77 23 6 0 9.00951881010085 2.11905883659609 0.0176580715924501
78 24 6 0 4.71087772792205 10.0885035229754 2.77525665122084
79 24 3 0 5.67087772792205 10.0885035229754 2.77525665122084
80 24 6 0 5.91087772792205 9.15850352297537 2.77525665122084
81 25 6 0 2.67989825617522 11.5895501272194 13.9610785769764
82 25 3 0 3.63989825617522 11.5895501272194 13.9610785769764
83 25 6 0 3.87989825617522 10.6595501272194 13.9610785769764
84 26 6 0 12.0060695002042 13.4885023235716 1.25883717206307
85 26 3 0 12.9660695002042 13.4885023235716 1.25883717206307
86 26 6 0 13.2060695002042 12.5585023235716 1.25883717206307
87 27 6 0 9.00008181503043 10.7118555232324 3.0939119704999
88 27 3 0 9.96008181503043 10.7118555232324 3.0939119704999
89 27 6 0 10.2000818150304 9.78185552323237 3.0939119704999
90 28 6 0 0.501068508457392 3.87017891899683 7.15208218549378
91 28 3 0 1.46106850845739 3.87017891899683 7.15208218549378
92 28 6 0 1.70106850845739 2.94017891899683 7.15208218549378
93 29 6 0 7.33343774612993 6.73870185896754 10.0249062571675
94 29 3 0 8.29343774612993 6.73870185896754 10.0249062571675
95 29 6 0 8.53343774612993 5.80870185896754 10.0249062571675
96 30 6 0 8.93550516732037 3.98189727607183 7.61678097071126
97 30 3 0 9.89550516732037 3.98189727607183 7.61678097071126
98 30 6 0 10.1355051673204 3.05189727607183 7.61678097071126
99 31 6 0 5.1490321398899 14.9233619383909 13.4097898949403
100 31 3 0 6.1090321398899 14.9233619383909 13.4097898949403
101 31 6 0 6.3490321398899 13.9933619383909 13.4097898949403
102 32 6 0 9.53238522794098 7.26795449661091 6.90380596322939
103 32 3 0 10.492385227941 7.26795449661091 6.90380596322939
104 32 6 0 10.732385227941 6.33795449661091 6.90380596322939
105 33 6 0 8.33575175536796 0.603848311994225 11.4743367978372
106 33 3 0 9.29575175536796 0.603848311994225 11.4743367978372
107 33 6 0 9.53575175536796 -0.326151688005775 11.4743367978372
108 34 6 0 4.61091711695306 9.72416961490177 11.5727977396455
109 34 3 0 5.57091711695306 9.72416961490177 11.5727977396455
110 34 6 0 5.81091711695306 8.79416961490177 11.5727977396455
111 35 6 0 2.14241977941245 12.2578480087128 4.1597145027481
112 35 3 0 3.10241977941245 12.2578480087128 4.1597145027481
113 35 6 0 3.34241977941245 11.3278480087128 4.1597145027481
114 36 6 0 7.22211239204742 4.90758490440436 2.6113334891852
115 36 3 0 8.18211239204742 4.90758490440436 2.6113334891852
116 36 6 0 8.42211239204742 3.97758490440436 2.6113334891852
117 37 6 0 5.96245488661341 3.20567774278112 0.30477691325359
118 37 3 0 6.92245488661341 3.20567774278112 0.30477691325359
119 37 6 0 7.16245488661341 2.27567774278112 0.30477691325359
120 38 6 0 2.27516518833116 12.255051351795 11.0582697484642
121 38 3 0 3.23516518833116 12.255051351795 11.0582697484642
122 38 6 0 3.47516518833116 11.325051351795 11.0582697484642
123 39 6 0 5.73668355049565 15.2579138094466 8.40980649925768
124 39 3 0 6.69668355049565 15.2579138094466 8.40980649925768
125 39 6 0 6.93668355049565 14.3279138094466 8.40980649925768
126 40 6 0 11.9786388314981 13.3955170171708 7.00919350027107
127 40 3 0 12.9386388314981 13.3955170171708 7.00919350027107
128 40 6 0 13.1786388314981 12.4655170171708 7.00919350027107
129 41 6 0 7.7707614835538 9.7987730514165 3.94140875665471
130 41 3 0 8.7307614835538 9.7987730514165 3.94140875665471
131 41 6 0 8.9707614835538 8.8687730514165 3.94140875665471
132 42 6 0 9.63193447256461 6.07220279675908 0.808349750004709
133 42 3 0 10.5919344725646 6.07220279675908 0.808349750004709
134 42 6 0 10.8319344725646 5.14220279675908 0.808349750004709
135 43 6 0 -0.204428619034588 14.5347078684159 7.23069959320128
136 43 3 0 0.755571380965412 14.5347078684159 7.23069959320128
137 43 6 0 0.995571380965412 13.6047078684159 7.23069959320128
138 44 6 0 6.8044390766602 4.33665129047818 11.0363801813219
139 44 3 0 7.7644390766602 4.33665129047818 11.0363801813219
140 44 6 0 8.0044390766602 3.40665129047818 11.0363801813219
141 45 6 0 1.56820191579871 12.472892583292 3.37939775199629
142 45 3 0 2.52820191579871 12.472892583292 3.37939775199629
143 45 6 0 2.76820191579871 11.542892583292 3.37939775199629
144 46 6 0 13.8120914662443 13.3433816003986 3.30062672146596
145 46 3 0 14.7720914662443 13.3433816003986 3.30062672146596
146 46 6 0 15.0120914662443 12.4133816003986 3.30062672146596
147 47 6 0 2.28611417856999 10.0163335136045 9.51591004617512
148 47 3 0 3.24611417856999 10.0163335136045 9.51591004617512
149 47 6 0 3.48611417856999 9.08633351360448 9.51591004617512
150 48 6 0 2.75983674961142 3.26878156088293 7.12078885291703
151 48 3 0 3.71983674961142 3.26878156088293 7.12078885291703
152 48 6 0 3.95983674961142 2.33878156088293 7.12078885291703
153 49 6 0 4.63907880635932 9.49731951387599 9.55424595158547
154 49 3 0 5.59907880635932 9.49731951387599 9.55424595158547
155 49 6 0 5.83907880635932 8.56731951387599 9.55424595158547
156 50 6 0 0.0277513107005507 12.0026355031319 12.3434499569703
157 50 3 0 0.987751310700551 12.0026355031319 12.3434499569703
158 50 6 0 1.22775131070055 11.0726355031319 12.3434499569703
159 51 6 0 13.7121834587026 3.47345679224469 7.88215599604882
160 51 3 0 14.6721834587026 3.47345679224469 7.88215599604882
161 51 6 0 14.9121834587026 2.54345679224469 7.88215599604882
162 52 6 0 2.82497305001132 14.5958514806721 8.79863828304224
163 52 3 0 3.78497305001132 14.5958514806721 8.79863828304224
164 52 6 0 4.02497305001132 13.6658514806721 8.79863828304224
165 53 6 0 12.3845174330939 6.32687469403259 14.4419547147118
166 53 3 0 13.3445174330939 6.32687469403259 14.4419547147118
167 53 6 0 13.5845174330939 5.39687469403259 14.4419547147118
168 54 6 0 0.783085145959631 15.1238456768356 3.74104554648511
169 54 3 0 1.74308514595963 15.1238456768356 3.74104554648511
170 54 6 0 1.98308514595963 14.1938456768356 3.74104554648511
171 55 6 0 13.0252713155653 4.37267603975721 5.26541829924099
172 55 3 0 13.9852713155653 4.37267603975721 5.26541829924099
173 55 6 0 14.2252713155653 3.44267603975721 5.26541829924099
174 56 6 0 13.0531007637922 12.0314034730569 10.3723990183789
175 56 3 0 14.0131007637922 12.0314034730569 10.3723990183789
176 56 6 0 14.2531007637922 11.1014034730569 10.3723990183789
177 57 6 0 2.4284211073257 10.9869275653642 9.85679148696363
178 57 3 0 3.3884211073257 10.9869275653642 9.85679148696363
179 57 6 0 3.6284211073257 10.0569275653642 9.85679148696363
180 58 6 0 10.8366476981621 4.53193851787597 9.01840917184018
181 58 3 0 11.7966476981621 4.53193851787597 9.01840917184018
182 58 6 0 12.0366476981621 3.60193851787597 9.01840917184018
183 59 6 0 10.8438537041377 14.1405407029111 7.40069925785065
184 59 3 0 11.8038537041377 14.1405407029111 7.40069925785065
185 59 6 0 12.0438537041377 13.2105407029111 7.40069925785065
186 60 6 0 3.71680317839608 7.42600432638079 13.7288019934203
187 60 3 0 4.67680317839608 7.42600432638079 13.7288019934203
188 60 6 0 4.91680317839608 6.49600432638079 13.7288019934203
189 61 6 0 -0.00908813511952755 7.36051977536641 2.21835044212639
190 61 3 0 0.950911864880472 7.36051977536641 2.21835044212639
191 61 6 0 1.19091186488047 6.43051977536641 2.21835044212639
192 62 6 0 8.2660489347484 10.7499754479527 0.378455913159996
193 62 3 0 9.2260489347484 10.7499754479527 0.378455913159996
194 62 6 0 9.4660489347484 9.81997544795275 0.378455913159996
195 63 6 0 7.0439634150546 7.71590199595317 4.9052204482723
196 63 3 0 8.0039634150546 7.71590199595317 4.9052204482723
197 63 6 0 8.2439634150546 6.78590199595317 4.9052204482723
198 64 6 0 -0.63967631271109 8.00637010642327 10.72890901356
199 64 3 0 0.32032368728891 8.00637010642327 10.72890901356
200 64 6 0 0.56032368728891 7.07637010642327 10.72890901356
201 65 6 0 4.77399400711991 9.42410894361325 13.6901357781608
202 65 3 0 5.73399400711991 9.42410894361325 13.6901357781608
203 65 6 0 5.97399400711991 8.49410894361325 13.6901357781608
204 66 6 0 1.20528469953686 13.5522172208317 9.97258181101643
205 66 3 0 2.16528469953686 13.5522172208317 9.97258181101643
206 66 6 0 2.40528469953686 12.6222172208317 9.97258181101643
207 67 6 0 10.016220991239 5.36647693760693 4.77512202342041
208 67 3 0 10.976220991239 5.36647693760693 4.77512202342041
209 67 6 0 11.216220991239 4.43647693760693 4.77512202342041
210 68 6 0 11.2831637919601 9.18714433367364 12.3794265347533
211 68 3 0 12.2431637919601 9.18714433367364 12.3794265347533
212 68 6 0 12.4831637919601 8.25714433367364 12.3794265347533
213 69 6 0 13.7526116757374 2.46359637746587 3.17692013690248
214 69 3 0 14.7126116757374 2.46359637746587 3.17692013690248
215 69 6 0 14.9526116757374 1.53359637746587 3.17692013690248
216 70 6 0 6.7344456449803 11.9023025924712 7.43194433161989
217 70 3 0 7.6944456449803 11.9023025924712 7.43194433161989
218 70 6 0 7.9344456449803 10.9723025924712 7.43194433161989
219 71 6 0 12.8792347192951 13.9825619796198 3.83934621233493
220 71 3 0 13.8392347192951 13.9825619796198 3.83934621233493
221 71 6 0 14.0792347192951 13.0525619796198 3.83934621233493
222 72 6 0 11.1190851630829 8.79220719955862 0.197137658251449
223 72 3 0 12.0790851630829 8.79220719955862 0.197137658251449
224 72 6 0 12.3190851630829 7.86220719955862 0.197137658251449
225 73 6 0 12.6094815465342 0.980215915888548 0.492400346556678
226 73 3 0 13.5694815465342 0.980215915888548 0.492400346556678
227 73 6 0 13.8094815465342 0.0502159158885478 0.492400346556678
228 74 6 0 6.05929010242224 8.78794008790515 1.53250204282813
229 74 3 0 7.01929010242224 8.78794008790515 1.53250204282813
230 74 6 0 7.25929010242224 7.85794008790515 1.53250204282813
231 75 6 0 2.09931960373186 8.42657836777158 14.3330323335249
232 75 3 0 3.05931960373186 8.42657836777158 14.3330323335249
233 75 6 0 3.29931960373186 7.49657836777158 14.3330323335249
234 76 6 0 2.52517959728837 6.44345848047174 6.52108336100355
235 76 3 0 3.48517959728837 6.44345848047174 6.52108336100355
236 76 6 0 3.72517959728837 5.51345848047175 6.52108336100355
237 77 6 0 8.44862422367558 0.418479743357748 12.0831916329917
238 77 3 0 9.40862422367558 0.418479743357748 12.0831916329917
239 77 6 0 9.64862422367558 -0.511520256642252 12.0831916329917
240 78 6 0 2.36706626412459 12.6656288797408 3.15834776731208
241 78 3 0 3.32706626412459 12.6656288797408 3.15834776731208
242 78 6 0 3.56706626412459 11.7356288797408 3.15834776731208
243 79 6 0 6.32825331922621 14.3062654188275 2.98147362889722
244 79 3 0 7.28825331922621 14.3062654188275 2.98147362889722
245 79 6 0 7.52825331922621 13.3762654188275 2.98147362889722
246 80 6 0 3.37398737596348 9.77805470157415 2.73202556767501
247 80 3 0 4.33398737596348 9.77805470157415 2.73202556767501
248 80 6 0 4.57398737596348 8.84805470157415 2.73202556767501
249 81 6 0 7.37766982798465 3.99687203503214 9.98873826814815
250 81 3 0 8.33766982798465 3.99687203503214 9.98873826814815
251 81 6 0 8.57766982798465 3.06687203503214 9.98873826814815
252 82 6 0 12.9381751029007 8.04834846564569 4.03003997867927
253 82 3 0 13.8981751029007 8.04834846564569 4.03003997867927
254 82 6 0 14.1381751029007 7.11834846564569 4.03003997867927
255 83 6 0 6.26330020881258 3.16978644737042 9.5953540771734
256 83 3 0 7.22330020881258 3.16978644737042 9.5953540771734
257 83 6 0 7.46330020881258 2.23978644737042 9.5953540771734
258 84 6 0 8.11709547808394 4.89171318750828 6.35491903871298
259 84 3 0 9.07709547808394 4.89171318750828 6.35491903871298
260 84 6 0 9.31709547808394 3.96171318750828 6.35491903871298
261 85 6 0 10.9023402251489 3.64523053559475 8.32708328962326
262 85 3 0 11.8623402251489 3.64523053559475 8.32708328962326
263 85 6 0 12.1023402251489 2.71523053559475 8.32708328962326
264 86 6 0 11.8088814981468 9.12935584358871 1.68561322730966
265 86 3 0 12.7688814981468 9.12935584358871 1.68561322730966
266 86 6 0 13.0088814981468 8.19935584358871 1.68561322730966
267 87 6 0 12.0321357766818 8.82478132884949 5.68979020463303
268 87 3 0 12.9921357766818 8.82478132884949 5.68979020463303
269 87 6 0 13.2321357766818 7.89478132884949 5.68979020463303
270 88 6 0 7.30677062340081 3.96853272960521 8.41736623900943
271 88 3 0 8.26677062340081 3.96853272960521 8.41736623900943
272 88 6 0 8.50677062340081 3.03853272960521 8.41736623900943
273 89 6 0 2.26316662316211 10.6292159405444 11.0565547586884
274 89 3 0 3.22316662316211 10.6292159405444 11.0565547586884
275 89 6 0 3.46316662316211 9.69921594054438 11.0565547586884
276 90 6 0 8.33212928541005 4.71135427634232 6.93895175470971
277 90 3 0 9.29212928541005 4.71135427634232 6.93895175470971
278 90 6 0 9.53212928541005 3.78135427634232 6.93895175470971
279 91 6 0 11.6866009302624 1.22548922006041 10.4640376952011
280 91 3 0 12.6466009302624 1.22548922006041 10.4640376952011
281 91 6 0 12.8866009302624 0.295489220060408 10.4640376952011
282 92 6 0 7.85625901233405 1.25737206236459 12.9751820163801
283 92 3 0 8.81625901233405 1.25737206236459 12.9751820163801
284 92 6 0 9.05625901233405 0.327372062364593 12.9751820163801
285 93 6 0 9.2593116201181 14.0120954617765 14.5303872472141
286 93 3 0 10.2193116201181 14.0120954617765 14.5303872472141
287 93 6 0 10.4593116201181 13.0820954617765 14.5303872472141
288 94 6 0 6.61263231581077 1.57592362415977 14.9967677216046
289 94 3 0 7.57263231581077 1.57592362415977 14.9967677216046
290 94 6 0 7.81263231581077 0.645923624159768 14.9967677216046
291 95 6 0 3.94781905037351 11.9620082997158 11.2937761377543
292 95 3 0 4.90781905037351 11.9620082997158 11.2937761377543
293 95 6 0 5.14781905037351 11.0320082997158 11.2937761377543
294 96 6 0 9.83805071722716 12.432145172907 10.8156278869137
295 96 3 0 10.7980507172272 12.432145172907 10.8156278869137
296 96 6 0 11.0380507172272 11.502145172907 10.8156278869137
297 97 6 0 13.3650628609769 14.2281059040129 14.0741724846885
298 97 3 0 14.3250628609769 14.2281059040129 14.0741724846885
299 97 6 0 14.5650628609769 13.2981059040129 14.0741724846885
300 98 6 0 9.62558435669169 15.0800314188842 5.89847799623385
301 98 3 0 10.5855843566917 15.0800314188842 5.89847799623385
302 98 6 0 10.8255843566917 14.1500314188842 5.89847799623385
303 99 6 0 9.27153436627239 14.1729475573543 14.8197594482917
304 99 3 0 10.2315343662724 14.1729475573543 14.8197594482917
305 99 6 0 10.4715343662724 13.2429475573543 14.8197594482917
306 100 6 0 2.98669806492515 10.1163969390932 12.3074484779499
307 100 3 0 3.94669806492515 10.1163969390932 12.3074484779499
308 100 6 0 4.18669806492515 9.18639693909325 12.3074484779499
309 101 6 0 3.3694410177134 11.6385884237848 12.1635696664453
310 101 3 0 4.3294410177134 11.6385884237848 12.1635696664453
311 101 6 0 4.5694410177134 10.7085884237848 12.1635696664453
312 102 6 0 14.0057426020224 5.37096886238083 0.457359444117174
313 102 3 0 14.9657426020224 5.37096886238083 0.457359444117174
314 102 6 0 15.2057426020224 4.44096886238083 0.457359444117174
315 103 6 0 1.88486757033505 10.7249817302823 14.0532025240827
316 103 3 0 2.84486757033505 10.7249817302823 14.0532025240827
317 103 6 0 3.08486757033505 9.79498173028231 14.0532025240827
318 104 6 0 7.88792937339284 12.6530242645554 12.5326053716708
319 104 3 0 8.84792937339284 12.6530242645554 12.5326053716708
320 104 6 0 9.08792937339284 11.7230242645554 12.5326053716708
321 105 6 0 0.512917089946568 8.92826789216138 9.30472458363511
322 105 3 0 1.47291708994657 8.92826789216138 9.30472458363511
323 105 6 0 1.71291708994657 7.99826789216138 9.30472458363511
324 106 6 0 2.23399033231661 8.15171031671576 1.18056838167831
325 106 3 0 3.19399033231661 8.15171031671576 1.18056838167831
326 106 6 0 3.43399033231661 7.22171031671576 1.18056838167831
327 107 6 0 13.0837704094313 13.5795906516165 12.2911676682997
328 107 3 0 14.0437704094313 13.5795906516165 12.2911676682997
329 107 6 0 14.2837704094313 12.6495906516165 12.2911676682997
330 108 6 0 3.90555876933038 8.43873238930479 12.9090788669419
331 108 3 0 4.86555876933038 8.43873238930479 12.9090788669419
332 108 6 0 5.10555876933038 7.50873238930479 12.9090788669419
333 109 6 0 1.94937562613748 12.044778273385 9.39973217435181
334 109 3 0 2.90937562613748 12.044778273385 9.39973217435181
335 109 6 0 3.14937562613748 11.114778273385 9.39973217435181
336 110 6 0 0.31719889651984 13.5418635343108 11.3809299026616
337 110 3 0 1.27719889651984 13.5418635343108 11.3809299026616
338 110 6 0 1.51719889651984 12.6118635343108 11.3809299026616
339 111 6 0 4.06724055108614 9.8812868461851 13.4810692712199
340 111 3 0 5.02724055108614 9.8812868461851 13.4810692712199
341 111 6 0 5.26724055108614 8.9512868461851 13.4810692712199
342 112 6 0 -0.530493439435959 11.3901030520815 12.6388907607179
343 112 3 0 0.429506560564041 11.3901030520815 12.6388907607179
344 112 6 0 0.669506560564041 10.4601030520815 12.6388907607179
345 113 6 0 10.6021923471428 7.01940756681375 14.4570389273576
346 113 3 0 11.5621923471428 7.01940756681375 14.4570389273576
347 113 6 0 11.8021923471428 6.08940756681375 14.4570389273576
348 114 6 0 2.46980243057013 4.41061379079707 4.5692894468084
349 114 3 0 3.42980243057013 4.41061379079707 4.5692894468084
350 114 6 0 3.66980243057013 3.48061379079707 4.5692894468084
351 115 6 0 11.3950989225134 2.56441577727906 8.51832677959464
352 115 3 0 12.3550989225134 2.56441577727906 8.51832677959464
353 115 6 0 12.5950989225134 1.63441577727906 8.51832677959464
354 116 6 0 9.44065080184489 7.75584560627118 11.7978399095591
355 116 3 0 10.4006508018449 7.75584560627118 11.7978399095591
356 116 6 0 10.6406508018449 6.82584560627118 11.7978399095591
357 117 6 0 8.46100650189444 8.36019411724061 14.4583185750525
358 117 3 0 9.42100650189444 8.36019411724061 14.4583185750525
359 117 6 0 9.66100650189444 7.43019411724061 14.4583185750525
360 118 6 0 1.56758028941229 11.0544596721325 6.51763607980683
361 118 3 0 2.52758028941229 11.0544596721325 6.51763607980683
362 118 6 0 2.76758028941229 10.1244596721325 6.51763607980683
363 119 6 0 13.8339070002269 14.9455961135123 11.8057942728046
364 119 3 0 14.7939070002269 14.9455961135123 11.8057942728046
365 119 6 0 15.0339070002269 14.0155961135123 11.8057942728046
366 120 6 0 1.45103847884573 6.17991749238223 13.0060157517437
367 120 3 0 2.41103847884573 6.17991749238223 13.0060157517437
368 120 6 0 2.65103847884573 5.24991749238223 13.0060157517437
369 121 6 0 -0.682557413382456 4.46123723098077 5.92236642725766
370 121 3 0 0.277442586617544 4.46123723098077 5.92236642725766
371 121 6 0 0.517442586617544 3.53123723098077 5.92236642725766
372 122 6 0 2.67844191097654 12.7787573802657 1.55663444660604
373 122 3 0 3.63844191097654 12.7787573802657 1.55663444660604
374 122 6 0 3.87844191097654 11.8487573802657 1.55663444660604
375 123 6 0 14.1044186618831 1.39932532719336 3.18476696033031
376 123 3 0 15.0644186618831 1.39932532719336 3.18476696033031
377 123 6 0 15.3044186618831 0.469325327193364 3.18476696033031
378 124 6 0 9.72502666918561 4.76801565190777 14.1959452314768
379 124 3 0 10.6850266691856 4.76801565190777 14.1959452314768
380 124 6 0 10.9250266691856 3.83801565190777 14.1959452314768
381 125 6 0 7.35496279128827 7.53472370136529 6.48024183930829
382 125 3 0 8.31496279128827 7.53472370136529 6.48024183930829
383 125 6 0 8.55496279128827 6.60472370136529 6.48024183930829
384 126 6 0 13.814507113276 3.20372739614919 10.1151461410336
385 126 3 0 14.774507113276 3.20372739614919 10.1151461410336
386 126 6 0 15.014507113276 2.27372739614919 10.1151461410336
387 127 6 0 12.5734253267013 6.24636172241531 12.0863179222215
388 127 3 0 13.5334253267013 6.24636172241531 12.0863179222215
389 127 6 0 13.7734253267013 5.31636172241531 12.0863179222215
390 128 6 0 -0.673382330713794 6.17160733131692 14.3683986284304
391 128 3 0 0.286617669286206 6.17160733131692 14.3683986284304
392 128 6 0 0.526617669286206 5.24160733131692 14.3683986284304
393 129 6 0 6.9296788545046 10.6626375012007 0.396767186466604
394 129 3 0 7.8896788545046 10.6626375012007 0.396767186466604
395 129 6 0 8.1296788545046 9.73263750120066 0.396767186466604
396 130 6 0 9.44356387990527 0.590167498858646 11.815490933368
397 130 3 0 10.4035638799053 0.590167498858646 11.815490933368
398 130 6 0 10.6435638799053 -0.339832501141354 11.815490933368
399 131 6 0 8.49733818599023 7.18373537220992 12.8367596422322
400 131 3 0 9.45733818599023 7.18373537220992 12.8367596422322
401 131 6 0 9.69733818599023 6.25373537220992 12.8367596422322
402 132 6 0 5.77178769090213 14.6368587754574 5.36189918057062
403 132 3 0 6.73178769090213 14.6368587754574 5.36189918057062
404 132 6 0 6.97178769090213 13.7068587754574 5.36189918057062
405 133 6 0 11.5675159874093 4.59429990191944 10.6591753999237
406 133 3 0 12.5275159874093 4.59429990191944 10.6591753999237
407 133 6 0 12.7675159874093 3.66429990191944 10.6591753999237
408 134 6 0 13.7798283858877 1.51425664586946 0.992470351047814
409 134 3 0 14.7398283858877 1.51425664586946 0.992470351047814
410 134 6 0 14.9798283858877 0.584256645869464 0.992470351047814
411 135 6 0 11.1487879282515 13.0277202550229 14.9578256369568
412 135 3 0 12.1087879282515 13.0277202550229 14.9578256369568
413 135 6 0 12.3487879282516 12.0977202550229 14.9578256369568
414 136 6 0 0.453051082296297 2.24521471228451 2.24290950223804
415 136 3 0 1.4130510822963 2.24521471228451 2.24290950223804
416 136 6 0 1.6530510822963 1.31521471228451 2.24290950223804
417 137 6 0 14.1339260658436 9.61933295749128 7.13148068985902
418 137 3 0 15.0939260658436 9.61933295749128 7.13148068985902
419 137 6 0 15.3339260658436 8.68933295749128 7.13148068985902
420 138 6 0 2.23159078901634 11.2966253996734 13.8776330393739
421 138 3 0 3.19159078901634 11.2966253996734 13.8776330393739
422 138 6 0 3.43159078901634 10.3666253996734 13.8776330393739
423 139 6 0 3.91536412222311 9.31869107455947 14.552069051424
424 139 3 0 4.87536412222311 9.31869107455947 14.552069051424
425 139 6 0 5.11536412222311 8.38869107455947 14.552069051424
426 140 6 0 12.9908887906652 6.69496142113581 9.24837809870951
427 140 3 0 13.9508887906652 6.69496142113581 9.24837809870951
428 140 6 0 14.1908887906652 5.76496142113581 9.24837809870951
429 141 6 0 8.41929630420171 1.74065254553221 9.77798317093402
430 141 3 0 9.37929630420171 1.74065254553221 9.77798317093402
431 141 6 0 9.61929630420171 0.810652545532212 9.77798317093402
432 142 6 0 1.63780693008564 13.8100815440435 13.7654926325195
433 142 3 0 2.59780693008564 13.8100815440435 13.7654926325195
434 142 6 0 2.83780693008564 12.8800815440435 13.7654926325195
435 143 6 0 9.95583790398203 13.0415738680772 4.56437031039968
436 143 3 0 10.915837903982 13.0415738680772 4.56437031039968
437 143 6 0 11.155837903982 12.1115738680772 4.56437031039968
438 144 6 0 9.25503308812156 14.5165216356423 9.89078213344328
439 144 3 0 10.2150330881216 14.5165216356423 9.89078213344328
440 144 6 0 10.4550330881216 13.5865216356423 9.89078213344328
441 145 6 0 8.59570364395156 8.45978822250851 5.64537436701357
442 145 3 0 9.55570364395157 8.45978822250851 5.64537436701357
443 145 6 0 9.79570364395157 7.5297882225085 5.64537436701357
444 146 6 0 6.91398784794845 4.57085497485474 5.51693608984351
445 146 3 0 7.87398784794845 4.57085497485474 5.51693608984351
446 146 6 0 8.11398784794845 3.64085497485474 5.51693608984351
447 147 6 0 12.876385542769 2.98422928242013 2.80986705911346
448 147 3 0 13.836385542769 2.98422928242013 2.80986705911346
449 147 6 0 14.076385542769 2.05422928242013 2.80986705911346
450 148 6 0 14.2147784591373 0.637996615087614 8.39263654779643
451 148 3 0 15.1747784591373 0.637996615087614 8.39263654779643
452 148 6 0 15.4147784591373 -0.292003384912387 8.39263654779643
453 149 6 0 10.9037588028889 7.07770323887467 8.49501028074883
454 149 3 0 11.8637588028889 7.07770323887467 8.49501028074883
455 149 6 0 12.1037588028889 6.14770323887467 8.49501028074883
456 150 6 0 8.36593364409171 14.0317421433888 14.6219993045088
457 150 3 0 9.32593364409171 14.0317421433888 14.6219993045088
458 150 6 0 9.56593364409171 13.1017421433888 14.6219993045088
459 151 6 0 0.412370790001005 7.63692668447271 3.61490398063324
460 151 3 0 1.372370790001 7.63692668447271 3.61490398063324
461 151 6 0 1.612370790001 6.70692668447271 3.61490398063324
462 152 6 0 -0.210209656069055 9.82756672235206 11.3665398512967
463 152 3 0 0.749790343930945 9.82756672235206 11.3665398512967
464 152 6 0 0.989790343930945 8.89756672235206 11.3665398512967
465 153 6 0 7.45227324703708 11.7259299607854 3.21360134636052
466 153 3 0 8.41227324703708 11.7259299607854 3.21360134636052
467 153 6 0 8.65227324703708 10.7959299607854 3.21360134636052
468 154 6 0 -0.489572209334001 1.13992778276093 2.0956693449989
469 154 3 0 0.470427790665999 1.13992778276093 2.0956693449989
470 154 6 0 0.710427790665999 0.209927782760933 2.0956693449989
471 155 6 0 3.37495314233936 11.5086024840735 0.791716634994373
472 155 3 0 4.33495314233936 11.5086024840735 0.791716634994373
473 155 6 0 4.57495314233936 10.5786024840735 0.791716634994373