LAMMPS (29 Sep 2021 - Update 1)
# Test LAMMPS input file for single DeFDe

# Initialize simulation

clear

units real
atom_style full
boundary p p p
dielectric 1
special_bonds dreiding

bond_style harmonic
angle_style harmonic
dihedral_style harmonic
improper_style umbrella
pair_style hybrid/overlay hbond/dreiding/lj 4 9.0 11.0 90 lj/cut 8.50000

# Read data file
read_data frag5.dat
Reading data file ...
  triclinic box = (0.0000000 0.0000000 0.0000000) to (15.000000 15.000000 15.000000) with tilt (0.0000000 0.0000000 0.0000000)
  2 by 4 by 4 MPI processor grid
  reading atoms ...
  1511 atoms
  scanning bonds ...
  3 = max bonds/atom
  scanning angles ...
  6 = max angles/atom
  scanning dihedrals ...
  12 = max dihedrals/atom
  scanning impropers ...
  1 = max impropers/atom
  reading bonds ...
  1010 bonds
  reading angles ...
  516 angles
  reading dihedrals ...
  14 dihedrals
  reading impropers ...
  1 impropers
Finding 1-2 1-3 1-4 neighbors ...
  special bond factors lj:    0        0        1       
  special bond factors coul:  0        0        1       
     4 = max # of 1-2 neighbors
     5 = max # of 1-3 neighbors
     8 = max # of special neighbors
  special bonds CPU = 0.002 seconds
  read_data CPU = 0.017 seconds

# Dreiding potential information

bond_coeff 1 350 1.59
bond_coeff 2 350 1.69
bond_coeff 3 350 1.8
bond_coeff 4 350 1.265
bond_coeff 5 350 0.935
bond_coeff 6 350 1.09
bond_coeff 7 350 0.98

angle_coeff 1 50 92.1
angle_coeff 2 50 104.51
angle_coeff 3 50 120
angle_coeff 4 50 109.471

dihedral_coeff 1 0.333333333333333 -1 3
dihedral_coeff 2 0.111111111111111 -1 3
dihedral_coeff 3 0.25 -1 6

improper_coeff 1 40 0

pair_coeff 1 1 lj/cut 0.0957 3.4046
pair_coeff 1 2 lj/cut 0.18144089946867 3.70412445795224
pair_coeff 1 3 lj/cut 0.0957 3.4046
pair_coeff 1 4 lj/cut 0.0860649754545948 3.53100349192691
pair_coeff 1 5 lj/cut 0.0953995283007206 3.64309650983885
pair_coeff 1 6 lj/cut 0.0030935416596516 3.29710294046152
pair_coeff 1 7 lj/cut 0.0381397430510485 3.29813538230316
pair_coeff 2 2 lj/cut 0.344 4.03
pair_coeff 2 3 lj/cut 0.18144089946867 3.70412445795224
pair_coeff 2 4 lj/cut 0.163173527264688 3.84164847428809
pair_coeff 2 5 lj/cut 0.180871224908773 3.96360303259547
pair_coeff 2 6 lj/cut 0.00586515131944607 3.58717019389936
pair_coeff 2 7 lj/cut 0.0723104418462507 3.58829346625941
pair_coeff 3 3 lj/cut 0.0957 3.4046
pair_coeff 3 4 lj/cut 0.0860649754545948 3.53100349192691
pair_coeff 3 5 lj/cut 0.0953995283007206 3.64309650983885
pair_coeff 3 6 lj/cut 0.0030935416596516 3.29710294046152
pair_coeff 3 7 lj/cut 0.0381397430510485 3.29813538230316
pair_coeff 4 4 lj/cut 0.0774 3.6621
pair_coeff 4 5 lj/cut 0.0857947550844456 3.77835472527395
pair_coeff 4 6 lj/cut 0.00278208554864871 3.41951536039831
pair_coeff 4 7 lj/cut 0.0342998542270955 3.42058613398347
pair_coeff 5 5 lj/cut 0.0951 3.8983
pair_coeff 5 6 lj/cut 0.00308382878902186 3.52806914614779
pair_coeff 5 7 lj/cut 0.0380199947396104 3.52917391183829
pair_coeff 6 6 lj/cut 1e-04 3.193
pair_coeff 6 7 lj/cut 0.0012328828005938 3.19399984345648
pair_coeff 7 7 lj/cut 0.0152 3.195
pair_coeff 1 3 hbond/dreiding/lj 6 j 9.50 2.75 4 9.0 11.0 90
pair_coeff 3 3 hbond/dreiding/lj 6 j 9.50 2.75 4 9.0 11.0 90
pair_coeff 3 4 hbond/dreiding/lj 6 i 9.50 2.75 4 9.0 11.0 90
pair_coeff 1 4 hbond/dreiding/lj 6 j 9.50 2.75 4 9.0 11.0 90
pair_coeff 3 4 hbond/dreiding/lj 6 j 9.50 2.75 4 9.0 11.0 90
pair_coeff 4 4 hbond/dreiding/lj 6 j 9.50 2.75 4 9.0 11.0 90

neighbor 2 bin
neigh_modify every 2 one 10000

# Gemoetric relaxation
fix 1 all box/relax iso 1.0 vmax 0.001
minimize 1.0e-4 1.0e-6 10000 10000
WARNING: Using 'neigh_modify every 1 delay 0 check yes' setting during minimization (../min.cpp:188)
Neighbor list info ...
  update every 1 steps, delay 0 steps, check yes
  max neighbors/atom: 10000, page size: 100000
  master list distance cutoff = 13
  ghost atom cutoff = 13
  binsize = 6.5, bins = 3 3 3
  3 neighbor lists, perpetual/occasional/extra = 3 0 0
  (1) pair hbond/dreiding/lj, perpetual, skip from (3)
      attributes: full, newton on
      pair build: skip
      stencil: none
      bin: none
  (2) pair lj/cut, perpetual, half/full from (3)
      attributes: half, newton on
      pair build: halffull/newton
      stencil: none
      bin: none
  (3) neighbor class addition, perpetual
      attributes: full, newton on
      pair build: full/bin
      stencil: full/bin/3d
      bin: standard
Per MPI rank memory allocation (min/avg/max) = 15.14 | 15.51 | 16.60 Mbytes
Step Temp E_pair E_mol TotEng Press Volume 
       0            0 4.4810386e+17    234.47605 4.4810386e+17 3.6415729e+19         3375 
    5413            0   -1168.5075    52.211971   -1116.2956    128.22107    37946.351 
Loop time of 5.2457 on 32 procs for 5413 steps with 1511 atoms

100.0% CPU use with 32 MPI tasks x no OpenMP threads

Minimization stats:
  Stopping criterion = energy tolerance
  Energy initial, next-to-last, final = 
    4.48103857665701e+17  -1115.71327115223  -1115.79138751041
  Force two-norm initial, final = 9.7104515e+19 116.58717
  Force max component initial, final = 6.2625400e+19 94.281710
  Final line search alpha, max atom move = 2.0868501e-05 0.0019675180
  Iterations, force evaluations = 5413 5416

MPI task timing breakdown:
Section |  min time  |  avg time  |  max time  |%varavg| %total
---------------------------------------------------------------
Pair    | 1.4194     | 2.5515     | 4.5078     |  47.2 | 48.64
Bond    | 0.0065897  | 0.011186   | 0.02096    |   2.9 |  0.21
Neigh   | 0.10893    | 0.10926    | 0.10953    |   0.1 |  2.08
Comm    | 0.26577    | 2.2221     | 3.3574     |  50.5 | 42.36
Output  | 0          | 0          | 0          |   0.0 |  0.00
Modify  | 0          | 0          | 0          |   0.0 |  0.00
Other   |            | 0.3517     |            |       |  6.70

Nlocal:        47.2188 ave          72 max          28 min
Histogram: 3 3 3 6 4 5 3 2 2 1
Nghost:        1933.16 ave        1985 max        1873 min
Histogram: 1 2 2 6 5 3 1 5 4 3
Neighs:        4898.59 ave        8740 max        2996 min
Histogram: 7 5 3 5 5 4 0 0 1 2

Total # of neighbors = 156755
Ave neighs/atom = 103.74255
Ave special neighs/atom = 2.0198544
Neighbor list builds = 96
Dangerous builds = 0

# MD simulation
velocity all create 300.0 12345 rot yes dist gaussian
timestep 1.0
fix 2 all nvt temp 300.0 300.0 1

# Compute interaction energy
group WAT molecule <> 2 501
1500 atoms in group WAT
group MOL molecule 1
11 atoms in group MOL

compute w WAT group/group MOL pair yes
fix 3 all ave/time 10 5 100 c_w file outa

# Outputs
thermo 100 # Output thermodynamic data every nth step
#dump mf1 all xyz 10000 mol_*.xyz

# Run
run 1000000
Neighbor list info ...
  update every 2 steps, delay 10 steps, check yes
  max neighbors/atom: 10000, page size: 100000
  master list distance cutoff = 13
  ghost atom cutoff = 13
  binsize = 6.5, bins = 6 6 6
  4 neighbor lists, perpetual/occasional/extra = 3 1 0
  (1) pair hbond/dreiding/lj, perpetual, skip from (4)
      attributes: full, newton on
      pair build: skip
      stencil: none
      bin: none
  (2) pair lj/cut, perpetual, half/full from (4)
      attributes: half, newton on
      pair build: halffull/newton
      stencil: none
      bin: none
  (3) compute group/group, occasional, copy from (2)
      attributes: half, newton on
      pair build: copy
      stencil: none
      bin: none
  (4) neighbor class addition, perpetual
      attributes: full, newton on
      pair build: full/bin
      stencil: full/bin/3d
      bin: standard
Per MPI rank memory allocation (min/avg/max) = 13.99 | 14.05 | 14.52 Mbytes
Step Temp E_pair E_mol TotEng Press Volume 
    5413          300   -1168.5075    52.211971    234.01138    1754.8756    37946.351 
    5500    300.64818   -1157.5308    269.43709    465.13075    773.55268    37946.351 
    5600    294.30453   -1154.4153    195.14034     365.3966   -122.07973    37946.351 
    5700    309.62341   -1143.0318    224.77775    475.36807    295.43091    37946.351 
    5800    295.93873   -1143.3746    223.21879    411.87121   -288.30825    37946.351 
    5900    304.94981   -1155.6962    223.15106    440.04101    77.352544    37946.351 
    6000    290.90858   -1155.9118    210.87056    364.34502    372.46437    37946.351 
    6100    287.11201   -1171.5996    223.38687    344.08504    111.53672    37946.351 
    6200     296.8179   -1151.9548    237.13387    421.16338    268.54058    37946.351 
    6300    304.02497   -1097.6018    219.89289    490.71456    384.47518    37946.351 
    6400    301.53039   -1136.0857    220.42456    441.53411    277.75245    37946.351 
    6500    292.62488   -1109.8415    235.41996    442.68981    460.97801    37946.351 
    6600    287.75965   -1129.1409     230.8659    396.93788    100.35425    37946.351 
    6700     296.4636   -1134.8999    238.26415    437.75381    450.68504    37946.351 
    6800    306.55186   -1121.2727    232.06207    490.58634    595.89327    37946.351 
    6900    291.46034   -1161.2206    244.61453    395.26372    221.75719    37946.351 
    7000     300.5811   -1099.3505    242.22621     495.7982    198.25076    37946.351 
    7100    299.83859   -1168.7107    238.55795    419.42763    -28.20194    37946.351 
    7200    285.30479   -1164.8758    242.03787    361.32555    363.82013    37946.351 
    7300     295.5614   -1125.0581    250.22787    455.49847   -152.02377    37946.351 
    7400    301.10953   -1107.6614    256.21018    503.84974   -80.875962    37946.351 
    7500    301.50718    -1164.651    248.04864    440.48843    412.71008    37946.351 
    7600    297.93233   -1131.7503    253.08525    462.33532    699.51382    37946.351 
    7700    302.67946   -1141.6241    244.98435    465.72756    602.02609    37946.351 
    7800    303.54264   -1168.3808    269.07909    466.95072    619.46748    37946.351 
    7900    300.09441    -1122.577    248.77036     476.9253    533.60263    37946.351 
    8000    294.71601   -1141.9195    249.87438    434.47852    119.23423    37946.351 
    8100    291.46246   -1148.2415    251.05678    414.69462    501.66602    37946.351 
    8200    309.70969   -1166.4086    260.25494    487.85686    325.12122    37946.351 
    8300    302.88315   -1118.3637    243.61617    488.53657    281.38963    37946.351 
    8400    309.34513   -1146.9652    244.94947    490.35389    676.22307    37946.351 
    8500     299.6268   -1138.6631    270.73699    480.70105    551.43275    37946.351 
    8600    292.78351   -1136.4916    270.25111    451.58484    193.85633    37946.351 
    8700    306.02615   -1154.4129    256.29788    479.31571    261.26695    37946.351 
    8800    308.37305   -1168.7577    265.71031    484.94685    247.60019    37946.351 
    8900    302.30565   -1116.0112    274.70712    519.38066    87.553929    37946.351 
    9000    293.66362   -1126.0127     270.2559    466.02996    126.31101    37946.351 
    9100    301.10899   -1144.7201    258.94294    469.52134     59.00469    37946.351 
    9200    303.05954   -1157.0032    273.07883    480.15361    366.57718    37946.351 
    9300    293.63062   -1142.5195    257.38634    436.50508     145.8376    37946.351 
    9400    282.11451   -1136.4305    279.78951    413.16289    382.00764    37946.351 
    9500    305.54638   -1151.0641    266.36977    490.57701    502.39763    37946.351 
    9600    292.29567   -1183.0779    279.96533      412.517    117.68711    37946.351 
    9700     290.6978   -1141.9141    274.18872    440.71219    268.92896    37946.351 
    9800    292.81799   -1141.9586    274.79668     450.8186    147.13542    37946.351 
    9900    293.52046   -1136.1787    278.30997    463.27369   -356.50507    37946.351 
   10000    303.79087   -1183.1297    277.40418    461.64424    284.73304    37946.351 
   10100    302.38154   -1158.1796    279.99317    482.83993    679.69623    37946.351 
   10200    306.76646   -1147.3229    281.99397    515.43407    329.68969    37946.351 
   10300    293.90602    -1170.226    273.32482    425.97663    974.14307    37946.351 
   10400    287.33829   -1182.0607    274.17347    385.42912    232.19959    37946.351 
   10500    298.43367    -1139.442    295.01546    498.83034    1129.9845    37946.351 
   10600    297.98543   -1115.0426    285.80671    512.00338    692.00142    37946.351 
   10700    307.12744   -1100.9463    288.04441    569.48579    809.87846    37946.351 
   10800     314.7695    -1130.702    280.10964    566.19246    761.97338    37946.351 
   10900    302.21175   -1132.7241    279.07734    506.61534    677.95911    37946.351 
   11000    300.44088   -1126.0736    287.72048    513.93828    552.79803    37946.351 
   11100     297.6054   -1167.6904    286.72573    458.56413    195.29045    37946.351 
   11200    297.06599   -1153.0611    287.47221      471.512    252.36964    37946.351 
   11300    297.31618   -1158.9387    297.18495    476.47321    87.501987    37946.351 
   11400    295.59432    -1085.283    287.24166    532.43554    321.00141    37946.351 
   11500    295.64558   -1105.3525    291.07181    516.42694    33.002359    37946.351 
   11600    299.08106   -1137.9873    287.80132    495.98475    312.11116    37946.351 
   11700    309.38198   -1114.3684    309.67537    587.84238    192.38914    37946.351 
   11800    293.02946   -1146.7256    302.22393     474.4307   -258.62439    37946.351 
   11900    301.24863   -1146.9529    285.03649    494.01067    409.55752    37946.351 
   12000    300.53866   -1152.4996    311.78861    512.02043    340.47975    37946.351 
   12100    297.84249   -1168.4799    298.14137    470.25745    11.508782    37946.351 
   12200    293.04885   -1182.2255    302.94027     439.7345    440.39349    37946.351 
   12300    302.23547     -1179.42     291.0607    472.00954    28.661418    37946.351 
   12400    298.74488   -1128.2566    294.29431    510.69531     30.21688    37946.351 
   12500    300.70862   -1172.4975    301.10546    482.10444   -341.86829    37946.351 
   12600    300.09067   -1141.4252     306.4278    515.71764    250.37546    37946.351 
   12700     305.7453   -1151.1888    310.50784    535.48569     -141.486    37946.351 
   12800    303.37694   -1142.4573    312.64609    535.69537   -518.01182    37946.351 
   12900    304.31875   -1186.4983    287.81081    471.05828    111.05027    37946.351 
   13000    298.36531   -1149.1887    308.63378    502.39423    235.27017    37946.351 
   13100    297.19649   -1147.2643    310.10905    500.53302   -13.746825    37946.351 
   13200    285.81476   -1192.8767    298.65195     392.2341   -160.37982    37946.351 
   13300    295.69041   -1132.1443     309.0559    507.82099   -174.25684    37946.351 
   13400    308.41285   -1189.0818    306.98533    506.07696    156.82136    37946.351 
   13500    300.39903   -1181.6426    322.82249     493.2829    382.46535    37946.351 
   13600    294.65458   -1171.4428     305.9655    460.76977    274.97662    37946.351 
   13700    310.48107   -1140.0482    304.89022    562.32454    434.95259    37946.351 
   13800    294.46345   -1164.7503    325.25846    485.89497    345.81698    37946.351 
   13900    299.16196   -1129.1591    304.67033    522.04611    420.82647    37946.351 
   14000    301.53702    -1202.244     314.9181    469.89925     713.4361    37946.351 
   14100    295.19865   -1231.9795    316.84835    413.56482    543.42153    37946.351 
   14200     289.4767   -1231.3245    301.26769    372.88454    303.39378    37946.351 
   14300    299.46287   -1206.6612    320.09368    461.32176    282.42037    37946.351 
   14400    306.89662   -1200.9294    328.20024    508.61964    66.728907    37946.351 
   14500    294.07884   -1204.2003    314.41521    433.87063    499.23801    37946.351 
   14600    304.37191   -1196.5877    310.47497     483.8723    815.90341    37946.351 
   14700    309.31082   -1213.9777    322.28842    500.52583    735.27272    37946.351 
   14800    292.39335   -1205.0345    296.23655    407.27132    225.89154    37946.351 
   14900    301.50477   -1248.9754    309.16668    417.27126    394.25441    37946.351 
   15000    305.47184   -1248.0886    314.97721    441.82442    244.81934    37946.351 
   15100    309.37919   -1210.1341     306.8622    489.25104   -80.724427    37946.351 
   15200    290.83661   -1202.2223    306.33108    413.17111    252.05633    37946.351 
   15300    289.64942   -1216.7548    324.79205    411.75601    57.203056    37946.351 
   15400    312.14315   -1218.7269    320.25624    506.49284    306.62974    37946.351 
   15500    313.01051   -1212.6572    327.17388    523.38419    134.60731    37946.351 
   15600    306.82933   -1208.7247    306.34694    478.66818    256.47023    37946.351 
   15700      297.229   -1194.7747    328.73826    471.79814    666.56972    37946.351 
   15800    293.71902   -1191.1908     322.9319    453.77721    158.20392    37946.351 
   15900    293.95635   -1207.1358    326.24221    442.21074    462.49675    37946.351 
   16000    303.32004   -1214.0137    332.65947    483.89629    623.34121    37946.351 
   16100     304.2342   -1259.8608    298.73948    408.24389    267.23575    37946.351 
   16200    311.10851   -1215.1894    321.60575    506.72299    764.29882    37946.351 
   16300    299.77943     -1237.82    328.57941    440.07351    679.20939    37946.351 
   16400    299.37391   -1191.8398    314.44082    470.08986   -78.839282    37946.351 
   16500    303.93709   -1165.0452    334.23303    537.21576    347.47799    37946.351 
   16600    301.68115   -1207.3934    335.70561    486.18611   -179.85012    37946.351 
   16700    297.37297   -1174.8102     318.1873     481.8597   -71.474332    37946.351 
   16800    303.22734   -1185.0396    320.97321    500.76689   -146.46196    37946.351 
   16900     301.8749   -1151.3165    349.28551    556.71493   -264.52501    37946.351 
   17000    297.64747   -1158.7389    329.81091    510.79019   -409.22249    37946.351 
   17100    297.17457   -1153.7809    326.85058    510.65925    -630.7587    37946.351 
   17200    287.51581   -1150.4972    328.83327    472.45139   -428.68749    37946.351 
   17300    307.91366   -1136.0387    333.19758    583.08539   -536.08576    37946.351 
   17400    296.84347   -1126.9238    343.81301    552.98852   -882.99939    37946.351 
   17500    298.16992   -1168.8869    322.52865    495.71146    -474.9403    37946.351 
   17600    297.47764   -1182.7884    334.65043    490.81581   -248.25193    37946.351 
   17700    298.01357   -1167.8285    316.70381    490.24126   -423.02303    37946.351 
   17800    293.16646   -1210.3471    331.12408    440.32603   -153.81204    37946.351 
   17900     298.7387   -1202.2194    349.02634    491.43675   -466.50331    37946.351 
   18000    300.26451   -1216.2612    345.28948    480.52584   -399.63256    37946.351 
   18100    301.61772    -1255.603    322.77475    424.76013   -525.73589    37946.351 
   18200    295.60481   -1199.2662    321.91487    453.17283   -339.06426    37946.351 
   18300    302.06618   -1173.9944    343.71386    529.32632   -185.76843    37946.351 
   18400    298.12146    -1189.651    330.03344    482.23407    178.76011    37946.351 
   18500    298.37986    -1238.628    328.40777    432.79447    280.45228    37946.351 
   18600    296.12474   -1212.3628    345.21101    465.71256   -14.761097    37946.351 
   18700     299.5377   -1190.7527    329.27829     486.7517   -327.04463    37946.351 
   18800    298.87701   -1210.8346    325.69784    460.11555   -24.373092    37946.351 
   18900    297.17499   -1222.3646    350.60352    465.83039    85.862819    37946.351 
   19000    307.96193   -1235.5425    335.97231    486.57363    250.34006    37946.351 
   19100    301.75824    -1243.037    344.41801    459.60183    325.27172    37946.351 
   19200    306.23355   -1237.2015    344.78149    485.94426   -529.71463    37946.351 
   19300     304.9675   -1214.7374    331.70361    489.63197    272.00336    37946.351 
   19400    301.03194   -1207.1415    335.34635    483.15654    2.9778373    37946.351 
   19500    300.00401   -1236.3471    353.33643    467.31432     518.2795    37946.351 
   19600    298.36612   -1248.3587    325.37587    419.96998    210.55882    37946.351 
   19700     311.3745   -1246.8689    360.19732    514.83224    247.46555    37946.351 
   19800    303.09736   -1203.7496    338.03078    498.52942    684.75692    37946.351 
   19900    308.35737   -1178.2703     328.3504    538.00378    232.40701    37946.351 
   20000    300.94339   -1187.5339    337.30906    504.32835   -111.03183    37946.351 
   20100    293.39198   -1226.8028    346.42585    440.18714    124.61477    37946.351 
   20200    304.88646   -1198.1657    331.59468       505.73    244.81347    37946.351 
   20300    294.45815   -1191.2508    354.61398    488.72614   -6.1793164    37946.351 
   20400    299.46679   -1213.1991    347.77559    482.48345    484.55152    37946.351 
   20500    291.78915   -1185.5362    347.85428    475.66775   -12.743745    37946.351 
   20600      297.275   -1248.2437    347.20835    437.00631   -189.77662    37946.351 
   20700    298.69687   -1232.1016    342.03628    454.37621   -206.87312    37946.351 
   20800    307.92776     -1209.77    346.09393    522.31391    148.72985    37946.351 
   20900    296.18282   -1223.2012     326.5635    436.48799    155.49359    37946.351 
   21000    304.60517   -1189.6906    343.64205    524.98637   -315.07278    37946.351 
   21100    309.54927   -1227.2754    356.40285    522.41591    756.72612    37946.351 
   21200    304.69418   -1225.3682    341.05287    487.12026     359.7861    37946.351 
   21300    291.45944   -1257.6868    349.08124    403.26018    195.15569    37946.351 
   21400     303.3825   -1269.8695    334.44075    430.10287    35.814642    37946.351 
   21500     307.0497   -1306.4727    324.74369    400.30885    501.37955    37946.351 
   21600    305.45798   -1298.7896      335.201    411.28482    119.43388    37946.351 
   21700    303.51361   -1295.1639    346.02564    416.98357    353.56809    37946.351 
   21800    310.24123   -1252.5836    344.84985    488.66925    11.809735    37946.351 
   21900    306.72322   -1214.6981    350.22081    516.09106   -17.318469    37946.351 
   22000    307.02289   -1221.8774    351.12811     511.1678   -307.56118    37946.351 
   22100    303.53135    -1248.089    350.63611    468.74877    142.59278    37946.351 
   22200    298.25536   -1289.7221    350.04397    402.77616   -91.415413    37946.351 
   22300    290.69568    -1246.195     362.3737    424.60667   -23.012415    37946.351 
   22400     291.2376   -1283.4796    360.93787    388.32546   -123.36464    37946.351 
   22500    296.86643   -1226.5848    356.76586    466.38369   -340.49167    37946.351 
   22600    303.94574    -1267.879    350.63739    450.82517   -256.47311    37946.351 
   22700    300.64899   -1229.7781    347.00601    470.45594    65.541032    37946.351 
   22800    306.24346    -1266.365    361.25224    473.29617    69.811893    37946.351 
   22900    299.01222   -1255.0469     349.3965    440.21055    -414.8401    37946.351 
   23000    304.97498   -1262.1574    359.00898    469.55104   -490.82962    37946.351 
   23100    293.67631   -1257.0483    349.73216    414.52773   -440.76743    37946.351 
   23200    299.36919   -1256.5007    361.72955     452.6965   -284.88689    37946.351 
   23300    302.99673   -1304.1586    385.53732    445.17398   -732.61872    37946.351 
   23400    303.18618   -1256.2186    347.35599    455.78541   -297.51682    37946.351 
   23500     295.8145   -1260.2319    334.36769    405.60369   -262.92076    37946.351 
   23600      304.096   -1271.6151    368.28631    465.41437    220.29025    37946.351 
   23700    299.83303   -1274.3683    342.97857    418.16571    211.85055    37946.351 
   23800     288.7408   -1270.3229    354.88056    384.18672    585.36467    37946.351 
   23900    298.15056   -1298.8341    354.98824    398.13671    261.76685    37946.351 
   24000    309.71456   -1305.2863    342.00625    430.75235    179.88973    37946.351 
   24100    311.49074   -1271.2395    355.94787    486.73544    37.807109    37946.351 
   24200    297.85059   -1246.8515     378.1869    471.96774   -252.64401    37946.351 
   24300     297.0681   -1239.1229     360.7333    458.72076   -363.90603    37946.351 
   24400    301.54441   -1318.9716    367.77653    406.06334    103.65963    37946.351 
   24500    294.00155   -1270.7817     360.6829    413.20904   -45.243216    37946.351 
   24600    292.87954   -1310.2764    350.74169    358.72284   -157.79243    37946.351 
   24700    294.28311    -1297.101    341.93659    369.41065    130.33973    37946.351 
   24800    304.05645   -1252.5655    371.12119    487.12077    298.23703    37946.351 
   24900    308.51771   -1288.2206    355.35084    455.77559    596.43758    37946.351 
   25000    297.09995   -1301.6312    372.36498    407.98757    488.95646    37946.351 
   25100    305.44229   -1294.2685    357.32077    437.85514    335.84085    37946.351 
   25200    298.06575   -1283.9277    346.20513    403.87832    171.27627    37946.351 
   25300    303.76299   -1299.9072    370.78849    438.12549    528.65229    37946.351 
   25400    299.62756    -1324.868    369.18489     392.9475    141.16625    37946.351 
   25500    295.59178   -1326.6214    351.02173    354.86581     553.3738    37946.351 
   25600    296.81885   -1254.6786    370.63546    451.94537     185.9626    37946.351 
   25700     300.2695   -1253.4282    349.26015    447.35193   -20.798577    37946.351 
   25800    300.26891   -1277.8626    358.36056     432.0153   -75.608286    37946.351 
   25900    293.77237   -1234.1349    380.29298    468.43434    389.43822    37946.351 
   26000    303.84502   -1255.4489    374.82349    486.98801    288.88524    37946.351 
   26100    297.81684    -1279.967    374.97244    435.48592    210.96514    37946.351 
   26200    299.87236   -1238.1576    379.03324    490.60807    592.09262    37946.351 
   26300     285.6148   -1229.0868    394.07911    450.55116    674.62863    37946.351 
   26400    286.22603   -1210.0235    366.82754    445.11409    629.93488    37946.351 
   26500    293.32726   -1212.5676    364.83038    472.53554    324.34335    37946.351 
   26600    301.12963   -1225.8252    363.54635    493.11261    229.21345    37946.351 
   26700    301.57279   -1265.1961    368.23544    460.42544     213.0652    37946.351 
   26800    293.54593   -1259.0491    374.80476     437.0127    267.01822    37946.351 
   26900    303.97148   -1275.4388    382.48097    475.22484    396.96833    37946.351 
   27000    298.52175   -1279.4233    372.26005    436.49002    120.07268    37946.351 
   27100      291.337   -1271.2571    382.81372    422.87119    394.18444    37946.351 
   27200    301.49665   -1274.5392    376.92968    459.43392    185.31422    37946.351 
   27300    298.22516   -1319.0439    370.52134    393.79578    52.660169    37946.351 
   27400    300.30253   -1297.9587    372.18834    425.89829    373.31461    37946.351 
   27500    300.00489   -1304.3511    356.19735    402.17519    406.89421    37946.351 
   27600     302.4631   -1282.5487    371.05927    449.90399    272.58871    37946.351 
   27700    305.79966   -1246.5163     399.0634    528.95843    519.41926    37946.351 
   27800    294.94157   -1264.9439    385.83815    448.43313    138.40113    37946.351 
   27900    294.17269   -1245.8124    396.17683    474.44255    -200.3542    37946.351 
   28000    305.51788   -1283.2969    382.76033    474.60645    169.70136    37946.351 
   28100    298.95034   -1267.9907    368.07604    445.66777     100.3361    37946.351 
   28200    299.27853   -1274.7211    377.76036    450.09883    282.31506    37946.351 
   28300    305.55031   -1295.8492    380.96889    460.40874    4.4870118    37946.351 
   28400    297.65737   -1286.4637    402.33765    455.63661    45.470316    37946.351 
   28500    303.95493   -1246.1578    381.45659    503.40698    262.85727    37946.351 
   28600    294.78898    -1288.352    381.95708    420.45716   -329.41948    37946.351 
   28700    308.07928   -1292.0929    386.98097    481.56004   -202.58607    37946.351 
   28800    291.19301    -1245.529    390.23118    455.36867    181.52725    37946.351 
   28900    292.98412   -1246.1336    394.46384    467.05851    219.45957    37946.351 
   29000    288.60967   -1269.2849    374.61115    404.36503    446.05003    37946.351 
   29100    304.90004   -1266.7726     381.3938    486.98331    662.42894    37946.351 
   29200    301.89017   -1273.0086    387.53943    473.34545    889.07621    37946.351 
   29300    304.34971   -1290.2626    390.84998    470.47248    594.29724    37946.351 
   29400    307.88563   -1313.3712    384.60583    457.03504    339.45946    37946.351 
   29500    289.60219   -1273.7087    397.04978    426.84729     112.8127    37946.351 
   29600    303.36461   -1271.1889    384.70232    478.96462    256.50364    37946.351 
   29700    303.72005   -1308.2714    373.22979    432.00932   -160.50047    37946.351 
   29800    295.07567   -1283.3238    391.71058    436.52918    355.07455    37946.351 
   29900    294.18838   -1286.3017     389.5612    427.40825     112.5793    37946.351 
   30000    290.86265   -1279.9628    385.66689    414.88366    343.09453    37946.351 
   30100    301.98435   -1293.2045    374.04554    440.07958   -48.243019    37946.351 
   30200    294.39244   -1259.5361    381.37275     446.9039    564.42275    37946.351 
   30300    304.22855   -1288.0869    398.03372    479.28659    8.6212948    37946.351 
   30400    297.33943   -1289.6749    407.42725      456.084    104.58463    37946.351 
   30500    308.13103   -1283.7348    399.14113    502.31128   -705.44014    37946.351 
   30600    306.52736   -1226.6431    405.95037      558.994   -153.14565    37946.351 
   30700    296.67518   -1235.3292    397.85407    497.86673   -484.10459    37946.351 
   30800    302.51966   -1263.1351     408.2475    506.76044   -784.84081    37946.351 
   30900    304.93384   -1278.9777    393.71786    487.25441   -853.04962    37946.351 
   31000    293.03903   -1275.3927    392.17067    435.75345   -683.42704    37946.351 
   31100    299.16762   -1279.0088    416.02546    483.57707    60.626432    37946.351 
   31200    295.93534   -1257.0058    400.57273    475.57879   -496.81441    37946.351 
   31300    295.54198   -1253.3885    397.66844    474.52122    179.08613    37946.351 
   31400    303.06055   -1258.8443    418.12326    523.36155    605.89462    37946.351 
   31500    292.98958   -1283.7708    396.50437    431.48643   -7.7934868    37946.351 
   31600    293.90344   -1246.6377    407.52904     483.7575   -536.43212    37946.351 
   31700    297.70838   -1280.9889    406.85944    465.86289   -149.83684    37946.351 
   31800    300.30884   -1298.0665    377.97875    431.60924   -81.343429    37946.351 
   31900    298.90083   -1283.9252    389.78263    451.21698   -27.642973    37946.351 
   32000    303.16146    -1364.486    393.51045    393.56122    245.03419    37946.351 
   32100    305.83742   -1360.9445    393.43569     409.0725    66.058976    37946.351 
   32200    307.60062   -1339.9637    376.15895    420.71277    462.50799    37946.351 
   32300    304.16635   -1317.6198    387.81186     439.2518    443.05954    37946.351 
   32400    304.94027   -1330.9571    377.61657    419.20274    216.96722    37946.351 
   32500    301.43197   -1312.6963    413.89939     457.9554    481.18829    37946.351 
   32600    293.95884   -1311.9098    404.97599    416.18169    437.19594    37946.351 
   32700    306.24999    -1306.337    402.62957    474.73085    304.64321    37946.351 
   32800    288.27119   -1311.4069    423.56592    409.67427   -366.87427    37946.351 
   32900    297.99819   -1313.4108    401.65364    429.53958     118.8954    37946.351 
   33000    305.04905   -1303.5705    385.92683    455.38922    66.344613    37946.351 
   33100    285.71163   -1319.9241    392.04167    358.11229   -421.41777    37946.351 
   33200    294.83334   -1328.6237    414.49959    412.92757    523.72153    37946.351 
   33300     294.2988   -1276.1256     403.2071    451.72719    57.990313    37946.351 
   33400    298.92895   -1304.7401    392.32637    433.07241     75.65543    37946.351 
   33500    301.54057   -1296.2669    415.51475    476.48889   -65.023104    37946.351 
   33600    300.34518   -1320.7608    400.88194    431.98179   -10.513186    37946.351 
   33700    294.29921   -1296.2324    378.33046    406.74559    -148.7145    37946.351 
   33800    299.47928   -1285.3269    380.93875    443.57507    170.76299    37946.351 
   33900    297.96041   -1323.7572    372.31245    389.68193    486.05845    37946.351 
   34000    291.38252   -1320.9467    396.31406    386.88686    73.403321    37946.351 
   34100    299.68726   -1318.3268    410.81653    441.38902    123.53799    37946.351 
   34200    305.99475   -1291.8635    405.44826    490.87424   -295.27652    37946.351 
   34300    295.71529   -1338.4069    420.30654    412.92105    -454.8345    37946.351 
   34400    309.18426    -1305.628     395.0545    481.07203   -671.00274    37946.351 
   34500    299.34476   -1330.9366     403.8784    420.29946   -435.97171    37946.351 
   34600     301.3757   -1323.4059    392.69772    425.79086   -638.12886    37946.351 
   34700    306.42655   -1338.0257     398.7067    439.91397   -338.78581    37946.351 
   34800    289.29884   -1324.9188    430.69428    407.91621   -185.20566    37946.351 
   34900    301.16701   -1316.8704    405.79547    444.48482   -41.698212    37946.351 
   35000    297.22486   -1323.5159    398.69841    412.99851   -146.02787    37946.351 
   35100    292.88443   -1360.8862    403.17599     360.5694     142.2055    37946.351 
   35200    297.57037   -1352.6105    387.45772    374.21829   -43.234204    37946.351 
   35300    297.85066   -1338.7786    376.31597    378.17011   -33.515083    37946.351 
   35400    299.84741   -1361.7618    389.91247    377.77082   -10.464372    37946.351 
   35500    305.57512   -1326.1487    405.82846    455.08043     567.4497    37946.351 
   35600    300.56692   -1365.5516    371.86838    359.17542    512.94284    37946.351 
   35700    295.10912   -1357.6845    401.43884     372.0473    8.5782142    37946.351 
   35800    299.96488    -1338.159    396.49301    408.48292    9.3776924    37946.351 
   35900     297.7502    -1387.227    379.85153    332.80508    207.46751    37946.351 
   36000    299.44056   -1338.8889    418.74106    427.64108   -29.097034    37946.351 
   36100    299.59283   -1314.8275    404.30683    437.95365   -125.13524    37946.351 
   36200    299.54901   -1325.2027    407.33807    430.41245   -155.91575    37946.351 
   36300    307.85844   -1331.7781    388.47997    442.37984   -331.13132    37946.351 
   36400    295.76479   -1295.7121    416.99417    452.52621    -49.72045    37946.351 
   36500    290.30468    -1316.329    426.16315    416.50229    262.56858    37946.351 
   36600    294.48677   -1322.6696    440.61894    443.44113    454.79813    37946.351 
   36700    303.04805   -1294.7167    417.98078    487.29033    613.48134    37946.351 
   36800    294.04165   -1321.7958    423.95445    425.64692    679.00509    37946.351 
   36900    297.18285   -1364.4024    409.37945    382.60394    230.03274    37946.351 
   37000    304.94868   -1334.3686    387.05586    425.26828    220.78981    37946.351 
   37100    297.89117   -1371.7401    416.25829    385.33328    465.51776    37946.351 
   37200     300.4078   -1338.9765    418.22701    431.39292    455.71894    37946.351 
   37300    299.00615   -1329.7233    420.23437     436.3447    253.53972    37946.351 
   37400    307.70479   -1319.7761    409.18588    474.39613    556.42166    37946.351 
   37500    289.50343   -1327.7414    413.07181    388.39209    213.96527    37946.351 
   37600    294.27993   -1322.8938    422.71219    424.37917    441.10655    37946.351 
   37700     299.2701   -1347.7841    393.92449    393.16209     175.9777    37946.351 
   37800    293.40543   -1309.1303    417.48998    428.98429    183.87663    37946.351 
   37900    296.97958   -1330.6423    395.41642    401.48611    174.35553    37946.351 
   38000    296.08339   -1291.7129    415.82071    456.78599   -53.450544    37946.351 
   38100    308.71116   -1354.0066    414.05775    449.56729    388.19747    37946.351 
   38200    310.31415   -1331.0077    418.34176    484.06524    390.74459    37946.351 
   38300    300.42904   -1339.9681    413.53993    425.80988   -108.95415    37946.351 
   38400    292.66026   -1335.4028    407.87071    389.73853   -148.36713    37946.351 
   38500    298.54093   -1309.8021    399.21998    433.15753   -233.98206    37946.351 
   38600    300.46387   -1313.8418     394.2543     432.8073   -134.99976    37946.351 
   38700    300.36854   -1341.3649    397.58757    408.18847    199.92759    37946.351 
   38800    302.07106   -1339.9021    414.87016    434.59693    558.65376    37946.351 
   38900    294.73741   -1298.2213    410.59721    438.99587    487.12645    37946.351 
   39000    291.33833   -1279.6277    419.94643    451.63931    212.14039    37946.351 
   39100    304.86584   -1339.2769    426.41719    459.34853    557.12274    37946.351 
   39200    299.48868   -1311.4114    401.58321    438.17731     406.0216    37946.351 
   39300    295.47878   -1334.6123    419.82708    415.17161    355.33926    37946.351 
   39400    292.95779   -1382.6064    411.82495    347.82839   -136.40634    37946.351 
   39500    294.02586   -1379.2619    410.59485    354.75014   -583.18462    37946.351 
   39600    304.65248   -1378.9349    410.51105    402.82398   -383.57047    37946.351 
   39700    296.14079   -1362.0124    425.41756    396.34168   -151.48394    37946.351 
   39800     299.9346   -1355.9291    412.93752    407.02105    134.93425    37946.351 
   39900     281.2716   -1346.0976    433.24998     353.1624   -486.42961    37946.351 
   40000    305.13999   -1341.2171     425.6552    457.88023    390.00937    37946.351 
   40100    304.15516   -1337.2295    421.30131    453.08118    -99.99853    37946.351 
   40200    298.34307   -1328.7676    439.37487     453.4563    328.32997    37946.351 
   40300    293.43017   -1305.9782    414.02607    428.78387   -96.974468    37946.351 
   40400    308.43538   -1337.1435    404.56647    455.69776   -187.70865    37946.351 
   40500    303.55145   -1337.7243    411.55638    440.12422    119.29931    37946.351 
   40600    297.52318   -1365.8704      415.948    389.23628   -319.35008    37946.351 
   40700    298.75483   -1371.0967    417.95981    391.56553    124.20731    37946.351 
   40800    307.66064   -1335.7104    430.49429    479.57158    135.86331    37946.351 
   40900    295.69328     -1329.12    427.23731    429.03964    126.41938    37946.351 
   41000    297.14067   -1315.6256    412.29308    434.10449   -57.798918    37946.351 
   41100     295.6082   -1359.3359    442.77518    413.97864    518.00661    37946.351 
   41200    300.22635   -1337.4769    414.36883    428.21772   -69.657322    37946.351 
   41300     302.1723   -1318.7088    437.16161    478.53737     104.3344    37946.351 
   41400     294.7441   -1345.5774    432.42118    413.49378   -174.16585    37946.351 
   41500     293.0654   -1375.5279    430.24075      373.807    199.85964    37946.351 
   41600    304.66731   -1320.2292    425.60162    476.68703   -653.04008    37946.351 
   41700    297.84824   -1349.3979    407.92016    399.14409   -278.84854    37946.351 
   41800    292.90771   -1328.6054    448.47941    438.25835   -211.55827    37946.351 
   41900     303.7555   -1320.6864    429.48535    476.00944   -36.207445    37946.351 
   42000    296.46489   -1374.6006    406.75401    366.54882    -395.4487    37946.351 
   42100    295.93619   -1415.7923    419.31915    335.54249   -23.814653    37946.351 
   42200    302.93373   -1359.6658     434.8929    438.73885    274.95464    37946.351 
   42300    298.63257   -1400.6536    423.44864    366.94721    256.65214    37946.351 
   42400    297.16349   -1375.3805     430.1162    392.27549    235.52434    37946.351 
   42500    294.84438   -1365.6474    444.47229    405.92631    134.44599    37946.351 
   42600    299.02932   -1349.2751    425.63717    422.30001   -122.33034    37946.351 
   42700    306.52198    -1341.949    435.96568    473.67926    572.89167    37946.351 
   42800    303.77595   -1383.3983    430.92065    414.82491    200.58506    37946.351 
   42900    302.01565   -1304.8112    430.08981    484.65807   -140.51803    37946.351 
   43000    309.16283   -1336.1685     404.5816     459.9622   -271.38667    37946.351 
   43100    295.74113   -1360.0062    436.95266    408.08416    246.69525    37946.351 
   43200    303.43053   -1353.0705    404.38652    417.06381    219.11959    37946.351 
   43300    289.48849   -1363.3642    436.81484    376.44502   -489.66154    37946.351 
   43400    292.87686   -1353.0146    411.36283    376.59374   -2.3492548    37946.351 
   43500    291.16252   -1354.0173     443.5449    400.05681   -425.77549    37946.351 
   43600      299.197   -1355.8881    427.20912     418.0137    294.56101    37946.351 
   43700    299.75393   -1348.9884    428.09184     428.3028    912.94146    37946.351 
   43800    296.92994   -1315.1613     429.9167    451.24401    844.74089    37946.351 
   43900    299.13925     -1330.74    431.02062    446.71327    679.72771    37946.351 
   44000    303.00946   -1366.6841    433.35577    430.52423    988.74215    37946.351 
   44100    311.02324   -1340.7948     433.4301    492.55813    670.18262    37946.351 
   44200    287.72547   -1399.4445    437.48332    333.09782   -65.019421    37946.351 
   44300    302.56963   -1330.1891    437.05581    468.73962   -555.00221    37946.351 
   44400    291.19109   -1383.9699    413.24566    339.93361   -632.47502    37946.351 
   44500    304.63335   -1381.1063    442.31882    432.37433   -627.79567    37946.351 
   44600    300.11593   -1367.9799    429.03998     411.8888   -600.26108    37946.351 
   44700    294.65379   -1367.5722     404.4345    363.10584   -66.366057    37946.351 
   44800    293.86371   -1347.0546    421.74078    397.37357    140.39494    37946.351 
   44900    303.74334   -1405.7122    392.96912    354.41276    9.9184902    37946.351 
   45000    292.04779   -1418.1308    404.64045    301.02352    123.81785    37946.351 
   45100    296.79298   -1400.4277    413.78745    349.23188    176.07655    37946.351 
   45200    300.19871   -1390.0739    414.57457    375.70204    340.32167    37946.351 
   45300    302.48674   -1414.8489    418.78367    365.43455    242.56686    37946.351 
   45400    295.39044    -1376.856    429.97132    382.67449   -261.10879    37946.351 
   45500    304.82202   -1385.6229    425.87456    412.26267    59.897662    37946.351 
   45600    301.01006   -1371.6706    408.81145    391.99408    401.69002    37946.351 
   45700    303.29254   -1369.0253    426.19783    422.29928   -145.35618    37946.351 
   45800    299.18433   -1344.6252    426.28616     428.2966    300.27889    37946.351 
   45900    295.08971   -1343.0167    414.56242     399.7513    214.41295    37946.351 
   46000    293.05316   -1327.0577      419.914    411.89534   -16.750949    37946.351 
   46100     296.9347   -1363.2821    419.52359    392.75146   -144.90237    37946.351 
   46200    302.94019   -1356.0134    423.00251    430.52998   -37.991968    37946.351 
   46300    292.08905   -1348.7378     419.5087     385.4705    344.77072    37946.351 
   46400    302.31893   -1334.1488    428.82326    455.41897     523.6812    37946.351 
   46500    292.47316   -1314.9874    426.11178    427.55289    255.09446    37946.351 
   46600    292.96089   -1355.5892      412.687     375.7215   -27.672527    37946.351 
   46700     303.0591   -1363.4025    415.17846    415.85199    72.003346    37946.351 
   46800    305.44918   -1424.3089    430.92791     381.4528    152.44946    37946.351 
   46900    300.51548   -1407.3733     416.3026     361.5565   -425.32006    37946.351 
   47000    295.66805   -1321.7244     426.0673    435.15162   -304.45251    37946.351 
   47100    298.04752   -1362.8854    447.91199    426.54538   -753.91488    37946.351 
   47200    296.38181   -1351.0006    433.36808    416.38886   -267.18818    37946.351 
   47300    303.54604   -1363.1113    407.13059    410.28701    71.157607    37946.351 
   47400    309.30006   -1345.5248    420.46741    467.10934    211.59456    37946.351 
   47500    297.31578   -1363.4215    435.66874    410.47249   -7.5758732    37946.351 
   47600    301.52908   -1343.6104    427.37778    440.95674   -157.90004    37946.351 
   47700    297.77741   -1343.1981    413.78761    410.89254    -189.7013    37946.351 
   47800     295.8389   -1328.7972      427.126    429.90658   -52.393925    37946.351 
   47900    306.16893   -1351.7529    422.35503    448.67557    654.13376    37946.351 
   48000     294.3063   -1340.5235    434.12404    418.28002    205.78196    37946.351 
   48100    304.87977   -1368.5511    427.44902    431.16882    502.56147    37946.351 
   48200    300.12561   -1365.1302    425.39921    411.14132    421.49398    37946.351 
   48300    303.48191   -1372.4108    413.38683    406.95513   -310.58706    37946.351 
   48400    300.86288   -1321.4916    432.35672    465.05592      342.059    37946.351 
   48500    297.15898   -1312.0791    434.54036    459.98071    252.05091    37946.351 
   48600     299.3143   -1326.6817    444.05043    464.58938   -111.33515    37946.351 
   48700    304.41473    -1319.314    443.54265    494.40642    338.90728    37946.351 
   48800    297.75462   -1370.5745    433.20384    402.82981    675.96937    37946.351 
   48900    305.82963   -1374.6426     419.4566    421.36024    748.72461    37946.351 
   49000    302.43753   -1372.8777    431.83683    420.23746    57.273937    37946.351 
   49100    294.80657   -1365.2121    448.84104    410.56013   -142.48854    37946.351 
   49200    289.11745   -1358.6291    443.62764    386.32292   -45.031471    37946.351 
   49300    298.34505    -1367.238    421.94973    397.56972    807.28475    37946.351 
   49400    308.30391   -1371.0287    416.11741    432.77173    75.284218    37946.351 
   49500    309.84808   -1297.3782    448.22228    545.47741   -67.627452    37946.351 
   49600    294.46777   -1354.8205     437.5922    408.17799    168.17131    37946.351 
   49700    294.21094   -1326.2902    467.23202    465.19206   -192.95624    37946.351 
   49800    291.57427   -1364.1522    460.86367    409.09401    5.7259255    37946.351 
   49900    303.92174    -1344.097    414.11031    437.97207    260.43982    37946.351 
   50000    287.22164   -1329.5123    437.42809    400.70704     314.4129    37946.351 
   50100     299.2981   -1300.4211    433.22874    479.95532    855.93796    37946.351 
   50200    289.59699   -1343.7695    423.82788    383.54112    646.61836    37946.351 
   50300     297.0461   -1370.0747    425.44052    392.37725    275.31235    37946.351 
   50400    304.47615   -1356.3243    479.20324    493.33318    131.21223    37946.351 
   50500    301.53174   -1352.1385    461.45934    466.52216    93.236221    37946.351 
   50600    308.40144   -1361.2937     423.8346    450.66293   -131.13712    37946.351 
   50700    309.03974   -1352.7878    440.21783    478.42507   -178.70934    37946.351 
   50800    287.04986   -1321.9741    434.51206    404.55608   -306.49335    37946.351 
   50900    291.76352   -1345.0799     415.6345    383.78899   -397.21425    37946.351 
   51000     286.3395   -1366.3273    433.85117    356.34458    298.69007    37946.351 
   51100    293.53016   -1347.9518     420.5206    393.75481    533.69066    37946.351 
   51200    302.67626   -1299.7559    466.42706    529.02406    411.97788    37946.351 
   51300    298.83347   -1313.6322    454.08903    485.51322    99.226381    37946.351 
   51400    301.71102    -1317.156    438.98864    479.84098    481.84278    37946.351 
   51500    290.27906   -1346.4649     432.6382     392.7261    46.585416    37946.351 
   51600    298.76136   -1326.0908    428.84216    447.48316    405.85268    37946.351 
   51700    297.67746    -1293.944    445.97954    491.88863   -58.586502    37946.351 
   51800    311.53817   -1318.5682    459.40291    543.07527   -111.16122    37946.351 
   51900    290.60655   -1353.1975    433.05133    387.88066    -131.6201    37946.351 
   52000    298.33706   -1331.5782    457.80217    469.04603   -9.1677247    37946.351 
   52100    295.69608   -1316.7993     462.7165    476.85211   -230.48606    37946.351 
   52200    299.31833   -1328.6594    456.32089     474.9002   -250.72392    37946.351 
   52300    300.81181   -1313.3608    456.64406    497.24424   -22.827017    37946.351 
   52400    299.14397   -1287.8747    459.69211     518.2713    -150.5281    37946.351 
   52500    306.36849   -1324.8508    477.84482     531.9657    30.070569    37946.351 
   52600    298.57731   -1358.4521    434.94541    420.39673   -165.25798    37946.351 
   52700    293.14759   -1296.7951    433.99954    456.66854   -642.96073    37946.351 
   52800    299.58229   -1316.5967    424.64372    456.47388   -652.10479    37946.351 
   52900    302.72218   -1357.2391    424.95849    430.27895    157.63967    37946.351 
   53000    289.62305   -1341.9599    455.80915    417.44928   -43.754891    37946.351 
   53100    301.54214   -1374.2036    446.89789     429.9424    178.93582    37946.351 
   53200    296.76966   -1345.3058    454.68639     445.1477    209.43443    37946.351 
   53300    305.25002   -1306.3852    461.98393    529.53614    503.62566    37946.351 
   53400    294.86745   -1341.1237    450.65457    436.73607     694.5657    37946.351 
   53500    300.85824    -1376.423    415.23742    392.98427    596.38838    37946.351 
   53600    301.01402   -1339.6065    460.99443    476.25896    543.02371    37946.351 
   53700    301.23823   -1308.2107    450.85531    498.52487    290.47905    37946.351 
   53800    300.77829   -1330.7547    417.96477    441.02012    235.36083    37946.351 
   53900    304.91463    -1285.916    432.55511    519.06688    211.14815    37946.351 
   54000    316.62261   -1329.9299    434.37583    529.57162   -296.51521    37946.351 
   54100    303.96249    -1368.075    436.73353    436.80079    -285.3075    37946.351 
   54200    298.89992   -1333.0473    429.81194    442.12006   -156.38862    37946.351 
   54300     297.1103   -1335.8142    431.70227    433.18841   -35.832984    37946.351 
   54400     297.5333   -1326.0165    433.30507    446.49282   -262.11406    37946.351 
   54500    304.62326   -1348.5593    419.46158    442.01867    364.50288    37946.351 
   54600    296.03667   -1326.6575    444.55757    450.36799    379.71454    37946.351 
   54700    295.57715   -1348.9644    455.99312    437.42828    1026.0445    37946.351 
   54800    301.73043   -1369.4088    424.04749    412.73433    189.02013    37946.351 
   54900    299.47162   -1346.1074    431.97825    433.79953    822.13635    37946.351 
   55000    315.22037   -1321.1831     425.3088    522.93986    742.56002    37946.351 
   55100    295.04216   -1352.0152    443.72696    419.70336    225.32461    37946.351 
   55200    309.91239   -1361.9043     440.7698    473.78832    317.45451    37946.351 
   55300    299.18453   -1325.1815    454.84553    476.30054    253.53193    37946.351 
   55400    305.24182   -1346.8995    447.90244    474.90347    254.45642    37946.351 
   55500    300.20094   -1352.5299    431.58405    430.26554    335.07641    37946.351 
   55600    305.38512    -1326.893    456.41421    504.06669    681.73141    37946.351 
   55700    306.97267   -1316.4013    449.97251    515.26235    378.29147    37946.351 
   55800    299.97373   -1348.3768    440.27342    442.08536      735.781    37946.351 
   55900    295.85294   -1364.1483    471.81121    439.30383   -72.874157    37946.351 
   56000    298.71584   -1304.8875    448.26859    487.90806   -79.521251    37946.351 
   56100    292.77937   -1320.9375    426.44581    423.31505    267.97053    37946.351 
   56200    291.37477   -1342.6126    447.74286    416.61488    52.996519    37946.351 
   56300    312.00805   -1355.9216    425.01563    473.44953    461.10396    37946.351 
   56400    307.67464   -1326.2954    440.88952    499.44476   -112.32748    37946.351 
   56500    299.35167   -1352.7769    457.24985    451.86179   -41.365436    37946.351 
   56600    303.45006   -1408.0753    412.64887    370.40932   -58.651055    37946.351 
   56700     294.7041   -1386.5974    448.38467    388.25727    2.5642646    37946.351 
   56800    306.57827   -1360.2566    442.86173      462.521    -136.1145    37946.351 
   56900    304.24062   -1357.0182    452.96823    465.34411   -376.38788    37946.351 
   57000    293.08217   -1366.2331    439.48004    392.41658    33.173636    37946.351 
   57100    299.08503   -1414.5619    458.07389     389.7006   -413.73645    37946.351 
   57200    288.83735   -1379.2732    448.42969    369.22009    175.35546    37946.351 
   57300    288.82071   -1406.3946    442.69486    336.28899    522.11908    37946.351 
   57400    299.11159   -1401.9467    429.97765    374.33911    228.70727    37946.351 
   57500    298.39602   -1413.5577    451.21073    380.74048    381.71514    37946.351 
   57600     301.8677   -1389.1769    461.71475     431.2513    703.15078    37946.351 
   57700    303.31404   -1423.3477    421.82342    363.69927   -111.02737    37946.351 
   57800    318.89268   -1414.6015    472.89292    493.63476   -103.10716    37946.351 
   57900    298.30971   -1391.6948    454.30088    405.30502    227.68336    37946.351 
   58000    299.01269   -1430.7476    445.47196    360.58741    419.30154    37946.351 
   58100    302.79197   -1375.5227    436.71633    424.06735    15.922932    37946.351 
   58200    297.88677    -1382.968    442.41578    400.24304   -31.147904    37946.351 
   58300    298.44198   -1363.7916    457.34963    436.85226    173.14766    37946.351 
   58400    294.77289   -1354.3791    449.56975    421.97027   -338.73552    37946.351 
   58500    300.17148   -1314.6598    463.49323    499.91222   -338.84612    37946.351 
   58600    300.13533   -1372.4246    461.48978    439.98125   -21.831044    37946.351 
   58700    306.88145   -1331.5379    462.72925    512.47181   -118.20355    37946.351 
   58800     294.5234   -1365.2437    472.81283    433.22577   -394.65773    37946.351 
   58900    310.02456   -1342.4969    441.58205    494.51293   -935.38091    37946.351 
   59000    301.98488   -1387.1135    454.04585    426.17328   -159.15442    37946.351 
   59100    305.01639   -1340.5917    469.22497     501.5191   -735.31087    37946.351 
   59200    288.89346   -1349.7822     446.7976    397.33157   -614.42966    37946.351 
   59300    306.56093   -1365.2428    443.52124    458.11629    253.07944    37946.351 
   59400    291.93824   -1399.5236    448.17991    362.67714   -486.10466    37946.351 
   59500    307.78945   -1360.7268    426.34654    450.98725    100.28539    37946.351 
   59600    302.90127   -1353.4484    464.19715    474.11435     455.6611    37946.351 
   59700    288.97419   -1353.2492    459.56655    406.99684   -135.35103    37946.351 
   59800    291.32696   -1322.0092    451.49151    440.75172    261.93286    37946.351 
   59900    296.79099   -1317.2195    439.63044    458.27406    175.19504    37946.351 
   60000    307.37281   -1360.8649    438.92472    461.55191     540.2861    37946.351 
   60100    304.04627   -1353.8808    442.24051    456.87902    422.35655    37946.351 
   60200    304.67729   -1344.2564    478.97237    506.07552    525.10139    37946.351 
   60300    306.08586   -1360.8344     423.5356    440.40076    358.03356    37946.351 
   60400    296.19246   -1313.3706    456.34807    476.14656    593.26424    37946.351 
   60500    302.96287   -1327.6014    471.05058    507.09212    545.73333    37946.351 
   60600    302.74771   -1363.6164    457.11503    456.17306    218.98178    37946.351 
   60700    308.91091   -1341.0316    456.77154    506.15515   -115.74654    37946.351 
   60800    312.23775   -1320.8201     426.3449    510.91412    476.14586    37946.351 
   60900    297.48799   -1385.3454    450.14581    403.80077    672.08095    37946.351 
   61000    300.25275   -1373.7876     429.9508    407.60783    628.44134    37946.351 
   61100     310.1537   -1433.7063     431.0788    393.38154   -4.3320786    37946.351 
   61200    305.29604   -1411.4868     447.6016    410.25939    605.24788    37946.351 
   61300    298.06764   -1380.4638    446.48386    407.62943    443.03443    37946.351 
   61400    314.48191   -1375.8507    434.77112     474.4108   -184.20806    37946.351 
   61500    302.62837   -1398.2678    426.64689    390.51643   -741.26715    37946.351 
   61600     298.8014   -1364.8976    449.77117    429.78558   -353.00167    37946.351 
   61700    288.95102   -1356.9683    478.15184    421.75881   -669.10105    37946.351 
   61800    296.76233   -1416.1548     455.5744    375.15372   -293.65148    37946.351 
   61900    306.42947   -1405.1176    452.35633    426.48493   -216.37956    37946.351 
   62000    296.41457   -1370.3845    455.90856    419.69292    -27.04952    37946.351 
   62100    300.26931   -1408.0116    427.00965    370.51715    404.42924    37946.351 
   62200    308.33968   -1370.1975    477.34218     494.9887    615.80904    37946.351 
   62300    307.92376   -1397.9386     475.6228    463.65619    502.66923    37946.351 
   62400    299.36718   -1410.1363    442.46723     379.7895   -122.14977    37946.351 
   62500    295.94002   -1401.8056    448.09497    378.32227    348.29142    37946.351 
   62600    297.94551   -1358.0793    457.02987    440.01023    441.49778    37946.351 
   62700    309.28598   -1362.8167    453.72839    483.01508    572.15381    37946.351 
   62800    294.55328   -1346.4869    470.91513    450.21937    377.44352    37946.351 
   62900    302.02861   -1330.7239    445.50936    474.22318    524.68857    37946.351 
   63000    296.19168   -1337.9633    450.20692    445.40918    360.08415    37946.351 
   63100     298.8638   -1371.2228    450.53336    424.50346    240.38451    37946.351 
   63200     285.5898   -1389.7041      470.341    366.08316    480.09929    37946.351 
   63300    307.57152   -1387.1965    458.41532    455.60534    483.76862    37946.351 
   63400    308.44311   -1364.8199    459.92824    483.41797     410.1598    37946.351 
   63500    295.27819   -1361.1201    460.40119    428.33508    408.84691    37946.351 
   63600    311.98871   -1396.8528     443.6898    451.10541    485.13945    37946.351 
   63700    300.12808   -1369.8018    447.48674    428.56837    546.88614    37946.351 
   63800    290.49255    -1362.089    450.26262    395.68732    8.3068949    37946.351 
   63900    293.56344   -1414.4346    463.21275    370.11398   -158.96291    37946.351 
   64000    302.71216   -1411.8841    459.80172    410.43209   -70.614101    37946.351 
   64100    292.65553    -1414.737    477.98623    380.49855    301.69664    37946.351 
   64200    295.44498   -1400.2251    454.18307    383.76266    441.08314    37946.351 
   64300    295.23704   -1452.2079    469.34932    346.01022    385.32202    37946.351 
   64400    306.59114   -1461.6253    457.87738    376.22593   -53.472323    37946.351 
   64500    298.19385   -1442.9947    448.72693    347.90962    267.08511    37946.351 
   64600    294.76168    -1461.796    447.99204    312.92525   -367.31728    37946.351 
   64700    300.89761   -1424.0628    428.60613    358.89049   -45.348162    37946.351 
   64800    286.62925   -1465.8515    437.43493    261.70831   -16.613318    37946.351 
   64900    304.38931   -1399.1363     473.7751    444.70212    344.10615    37946.351 
   65000    293.73111   -1463.9479    476.08633    334.22894     578.1828    37946.351 
   65100     299.2359   -1414.7423    467.25529     399.3807     957.0786    37946.351 
   65200    304.11284   -1400.7559     458.3739    426.43697    713.22911    37946.351 
   65300    303.74598   -1377.7794    474.28623    463.67449    95.620471    37946.351 
   65400    283.12294   -1422.1974    451.70601    303.85151   -67.382545    37946.351 
   65500    298.62804   -1415.2398    465.76897    394.66094    356.00624    37946.351 
   65600    302.79797   -1437.5624    464.52635    389.86467    12.158055    37946.351 
   65700    296.25132   -1413.4315    453.31166    373.31423   -247.42877    37946.351 
   65800    308.61757   -1399.3977    461.68259     451.3797   -143.52714    37946.351 
   65900    301.67134   -1431.7882    465.43372    391.47521   -6.6995655    37946.351 
   66000    279.13397   -1398.1857    454.78773    312.99053    690.81398    37946.351 
   66100    299.45933   -1378.0953    458.58779    428.36587    562.01634    37946.351 
   66200    306.29039   -1398.6502    476.52216    456.49208     551.7975    37946.351 
   66300    291.00734   -1352.2508     478.7658    436.34583    222.10014    37946.351 
   66400    294.75807   -1358.8828    476.90114    444.73125   -10.856028    37946.351 
   66500    302.01121   -1403.1158    461.81951    418.06318   -108.75622    37946.351 
   66600    306.76399   -1394.4449    473.21246    459.51938     216.9544    37946.351 
   66700    307.98034   -1425.2653    468.67057    429.63193    530.83627    37946.351 
   66800    300.01741   -1393.8404    446.71724     403.2621    171.68169    37946.351 
   66900    298.27587   -1380.6548    466.20719    428.09898    30.774526    37946.351 
   67000    292.36416   -1398.8278    485.24677    402.35676    249.06548    37946.351 
   67100    288.89889   -1415.3823    471.68491     356.6432    450.07541    37946.351 
   67200    309.33801   -1441.9053    455.63491    406.06714    359.54531    37946.351 
   67300    300.77679    -1408.989    449.12881    393.94314    224.05738    37946.351 
   67400    300.17772   -1421.2595    465.37839    395.22578   -351.82839    37946.351 
   67500    304.18742   -1399.2299    452.17398    422.09873    399.29303    37946.351 
   67600    296.00196   -1361.4347    470.84094    441.71793    26.229332    37946.351 
   67700    309.32382   -1385.7171    464.30113    470.85775    182.98131    37946.351 
   67800    300.97001   -1386.9459    469.50881    437.23593   -251.61907    37946.351 
   67900    300.94832   -1376.6308    465.99848    443.94306   -20.090583    37946.351 
   68000    301.96276   -1416.6838    469.90731    412.36492    352.83568    37946.351 
   68100    295.06389   -1383.1842    455.87895    400.78418    133.96457    37946.351 
   68200    302.53546   -1392.8183    464.56258    433.46343    379.75471    37946.351 
   68300    305.21623    -1408.338    459.37973    424.82703   -178.78762    37946.351 
   68400    298.50059   -1366.1895    442.15588    419.52442    324.50015    37946.351 
   68500    304.26988   -1353.4482     476.4326    492.51015   -16.491897    37946.351 
   68600    311.53576   -1416.6042    473.86896    459.49443   -35.909411    37946.351 
   68700    306.51369   -1385.1671    481.19745    475.65558   -359.70655    37946.351 
   68800    307.07672    -1393.576    464.67323    453.25665    150.04143    37946.351 
   68900    301.57275   -1403.3403    445.99339    400.03903    340.60481    37946.351 
   69000    301.99775   -1394.0223    457.90668    423.18324    226.53073    37946.351 
   69100    296.86823    -1357.467     461.7735    440.51728    118.33332    37946.351 
   69200    299.42108   -1389.2423    462.77393    421.23284    460.67947    37946.351 
   69300    307.39076   -1407.1671    454.36046    430.76631    875.14245    37946.351 
   69400    302.41142   -1459.4219    453.62408    355.36302    873.99055    37946.351 
   69500    300.73535    -1397.048    480.55326    437.12208    583.46288    37946.351 
   69600    295.92962   -1429.6869    450.13082    352.42997    21.321232    37946.351 
   69700    292.11891    -1425.148    458.97662    348.66262    166.75571    37946.351 
   69800    296.10232   -1435.2671    482.39179    379.88806     444.7778    37946.351 
   69900     299.5174   -1406.4205    459.76027    401.47458   -1.6361336    37946.351 
   70000    294.45823   -1436.0645    463.31104     352.6099    173.51466    37946.351 
   70100    303.34726   -1454.8655    441.40014    351.90769    25.619385    37946.351 
   70200    297.42827   -1440.1604     436.4717    335.04283    165.82604    37946.351 
   70300    301.94227   -1455.7798    451.18073    354.45007    265.07171    37946.351 
   70400    293.86835    -1454.499    446.71335    314.92258    204.06311    37946.351 
   70500    306.91582    -1454.462    485.48153    412.45477   -37.707229    37946.351 
   70600    301.54387   -1401.1923     471.3422    427.40589   -278.64763    37946.351 
   70700    304.09873   -1400.2744    507.01136    475.49234    90.526778    37946.351 
   70800    297.36116   -1436.4372    461.45714    363.44947    103.97167    37946.351 
   70900    297.18323   -1408.4813    457.13793    386.28525    115.35194    37946.351 
   71000    301.70341   -1433.2655    469.56917     394.2777    296.70451    37946.351 
   71100    303.23406   -1403.5734    463.44811    424.73824    723.80511    37946.351 
   71200     311.3743   -1395.7215    470.26518    476.04662    784.88591    37946.351 
   71300    296.50125   -1423.7269    462.70893    373.54101    170.18603    37946.351 
   71400    301.63159   -1440.5131    462.74294     379.8806    184.84614    37946.351 
   71500    301.98703   -1445.8928    477.88556    391.24338    -136.0468    37946.351 
   71600    305.27246    -1425.674    484.44753    432.81195   -339.17556    37946.351 
   71700    293.43381   -1443.8059    474.41761    351.36412   -131.97105    37946.351 
   71800    292.16387   -1450.9491    465.83944    329.92669    220.01717    37946.351 
   71900    314.22456   -1423.4094    475.41556    466.33822    35.793407    37946.351 
   72000    302.14394   -1456.8449    486.03329    389.14528   -173.96731    37946.351 
   72100    305.33554    -1473.265    478.69159    379.74892   -28.096938    37946.351 
   72200     295.3774   -1478.2552    461.08664    312.33199    481.41191    37946.351 
   72300    303.17877   -1466.4249    480.63692    378.82676    719.07559    37946.351 
   72400    304.68533   -1493.3704    471.25684    349.28219   -98.285439    37946.351 
   72500     293.8708   -1448.0368    471.00355    345.68604     387.0936    37946.351 
   72600    303.57092   -1473.2773    448.08545    341.18785    421.79984    37946.351 
   72700    293.73213    -1431.824    467.23291    357.50399    133.06246    37946.351 
   72800    303.61891   -1428.0487    472.42407    410.97109   -125.04156    37946.351 
   72900    290.73115    -1390.833    473.98117    391.73583   -102.11916    37946.351 
   73000    291.21054   -1414.0971    469.02044    365.66875    231.37132    37946.351 
   73100    303.42103   -1414.3018    496.60113    448.00445   -19.115224    37946.351 
   73200    303.57042   -1462.3992    476.31285    380.29119   -462.94317    37946.351 
   73300    294.93415   -1464.9574    445.39061    307.93867   -526.33878    37946.351 
   73400    300.55443   -1419.8634    481.76597    414.70505     129.4822    37946.351 
   73500    303.20707   -1448.3409    445.68951    362.09071    245.87861    37946.351 
   73600     298.8651   -1465.5579    480.89918    360.54005    485.18131    37946.351 
   73700    291.82681   -1423.0254    494.87288    385.36671    486.09989    37946.351 
   73800    306.47785    -1432.141    485.94279    433.26574    96.242892    37946.351 
   73900     302.0721   -1455.7194    457.41056    361.32468     118.3366    37946.351 
   74000    298.57269   -1406.0404    514.51074    452.35291    407.45348    37946.351 
   74100    295.17973   -1468.1042    467.06615    327.57277   -367.83656    37946.351 
   74200    293.39583   -1472.8534     461.4691     309.1972   -155.09063    37946.351 
   74300    302.84316   -1501.6326    466.03569    327.50716   -30.239929    37946.351 
   74400    296.52513   -1471.7527    496.04887    358.96264   -330.57678    37946.351 
   74500    307.45259   -1442.1903    494.55025    436.21117    622.89943    37946.351 
   74600    287.43493      -1468.3    473.41803    298.86926    487.99301    37946.351 
   74700    292.57056   -1485.8386    488.88326    319.91158    549.35905    37946.351 
   74800    312.96447   -1514.5135    445.02486    339.17175    230.50587    37946.351 
   74900    301.58746   -1472.6808    464.56607    349.33743    147.18237    37946.351 
   75000    299.16968   -1453.2879    473.67622    366.95795    184.03341    37946.351 
   75100    302.84099   -1454.0496     472.1537    381.19844     4.262966    37946.351 
   75200    295.94029   -1466.7267    487.78144    353.08888   -132.27951    37946.351 
   75300    299.96294   -1517.3258    470.29689    303.11122    -133.2992    37946.351 
   75400    302.46486   -1504.9041     465.7081    322.20539   -314.98484    37946.351 
   75500    298.71181   -1487.7987    471.80108    328.51118    -220.7921    37946.351 
   75600    281.76178   -1537.8026    424.50395    154.91771   -920.43591    37946.351 
   75700    310.54961   -1475.3746    490.61425    413.03064   -420.80972    37946.351 
   75800    303.33324   -1479.1976    481.18951    367.30181   -411.39382    37946.351 
   75900      306.749   -1464.0975    452.79899     369.3858     -329.239    37946.351 
   76000    297.12181   -1462.8276    452.24632    326.77088   -245.27305    37946.351 
   76100    291.33388    -1422.646    476.01305    364.66758    47.682419    37946.351 
   76200    303.35325   -1448.0273    494.17703    411.54971   -265.27866    37946.351 
   76300    293.53352   -1460.5306    466.10273    326.77327   -250.84564    37946.351 
   76400     307.4929   -1436.0281    480.53144    428.53604    261.40025    37946.351 
   76500    308.61197   -1440.2137    496.51974    445.37567     23.34792    37946.351 
   76600    307.97534   -1470.5653    467.42811    383.06699    462.21245    37946.351 
   76700    308.84538   -1466.4672    502.61866    426.27168    501.37001    37946.351 
   76800    304.50318    -1463.599    478.11581    385.09269     33.97049    37946.351 
   76900     301.5513   -1514.1165    488.00678    331.17967    236.37961    37946.351 
   77000    304.21501   -1512.9705    467.70747    324.01575    240.48775    37946.351 
   77100    300.62301   -1486.2632    472.00977    338.85769   -478.70719    37946.351 
   77200     294.9513   -1429.3189    497.80418    396.06793   -365.26559    37946.351 
   77300    294.94361   -1435.4714      490.592    382.66861   -250.66827    37946.351 
   77400    308.29631    -1441.307    469.38221      415.724   -349.26883    37946.351 
   77500    297.81142   -1450.4518    477.17612    367.18044   -368.13668    37946.351 
   77600      299.968   -1430.5366    487.58235    407.20864   -58.969362    37946.351 
   77700    292.16307   -1446.7828    499.33682    367.58672    245.43676    37946.351 
   77800    294.11116   -1459.5718    480.89989    345.12923    267.61142    37946.351 
   77900    294.83788   -1473.9744    479.33782    332.43553    370.05571    37946.351 
   78000    297.74117   -1495.1363    481.33486    326.33851    338.20339    37946.351 
   78100    307.37088   -1484.9395    494.06514    392.60911    262.02646    37946.351 
   78200    306.25523   -1435.7091    488.74343    431.49623    15.231399    37946.351 
   78300    290.26412   -1448.1594    511.29505    369.62121     123.1276    37946.351 
   78400    306.10795   -1438.6226    492.65616    431.83252    88.612075    37946.351 
   78500    301.75194   -1463.5156     496.6736    391.35046   -587.11362    37946.351 
   78600    299.59432   -1425.3465    478.95255    402.08699   -57.871677    37946.351 
   78700    309.58457   -1420.1807    487.03352    460.30014    371.79396    37946.351 
   78800     296.6292   -1489.9167     521.0542     366.2724    20.660254    37946.351 
   78900    304.31235    -1466.682    486.76824    389.80317    346.90031    37946.351 
   79000    296.23778    -1414.286    503.01252    422.09965    215.59364    37946.351 
   79100    297.36937   -1431.5761    488.38467    395.27497    89.663118    37946.351 
   79200    307.48532   -1437.4164    497.25883    443.84093   -596.74554    37946.351 
   79300     297.4201   -1437.4747    505.16886    406.38888   -704.09069    37946.351 
   79400    298.61486   -1419.8595    469.92336    394.13631   -151.54993    37946.351 
   79500    298.60049   -1432.1782    480.98106    392.81055   -318.24194    37946.351 
   79600    298.80756   -1422.4861    520.01161    442.46521   -1211.1884    37946.351 
   79700     287.7817   -1422.2727    478.24464    351.28399   -691.31916    37946.351 
   79800    291.11919   -1436.3249    482.59186    356.60116   -733.00853    37946.351 
   79900    303.80518   -1420.5702     507.4139    454.27783   -175.95456    37946.351 
   80000     299.0881   -1454.0789    473.83242    365.95595   -517.59836    37946.351 
   80100    297.98272   -1454.9751    476.55883    362.81085   -9.4267657    37946.351 
   80200    298.08177   -1445.1127    526.61021    423.17043    97.459676    37946.351 
   80300    294.36282    -1461.662    502.36112    365.63296    188.57784    37946.351 
   80400    295.53674   -1483.1802    521.85861    368.89614    26.202742    37946.351 
   80500    301.46246   -1465.2227    487.54996    379.21683    97.406169    37946.351 
   80600    302.17093   -1483.4172    491.34771    368.00891    739.73177    37946.351 
   80700     300.2296    -1460.429    517.09029    408.00171    793.97842    37946.351 
   80800    300.63798   -1478.5751    488.17214    362.77556    751.63328    37946.351 
   80900    306.74243   -1513.2743    488.39489     355.7754    535.50904    37946.351 
   81000    309.67771    -1521.546    502.00927    374.32981    1331.3195    37946.351 
   81100    301.14988   -1514.8298    483.58149    324.23431    1154.3903    37946.351 
   81200    290.69634   -1475.8175    466.83591    299.44935    458.34183    37946.351 
   81300    298.39991     -1478.12    484.25628     349.2412    238.67217    37946.351 
   81400    288.36516   -1439.9937    491.30738    349.25194    223.28595    37946.351 
   81500    307.11747   -1477.4673    495.91545    400.79104    419.50326    37946.351 
   81600    294.13265   -1515.0442    484.30279    293.15649      339.424    37946.351 
   81700    299.32436   -1477.2765    468.42701    338.41639    488.75616    37946.351 
   81800    294.81868   -1456.3804    500.51338    371.11874   -162.92517    37946.351 
   81900    286.57963   -1458.7657    502.21196     333.3478   -280.61338    37946.351 
   82000    296.55072   -1460.9975    468.22859    342.01274   -115.28577    37946.351 
   82100    296.88674   -1461.4713    493.30481    368.12756   -158.57088    37946.351 
   82200    302.33824     -1468.44    493.59709    385.98845   -138.36954    37946.351 
   82300    301.07095   -1447.9808    497.59396    404.74051   -131.94957    37946.351 
   82400     303.5153   -1473.8597    471.95734    364.22708   -467.56252    37946.351 
   82500    299.98551   -1467.0974    470.76362    353.90795   -239.89847    37946.351 
   82600    315.37035   -1476.4375    493.98668    437.03843   -466.51877    37946.351 
   82700    288.36699   -1464.6941     493.5822    326.83464   -932.05146    37946.351 
   82800    297.17111   -1420.3037    478.11858    395.38887   -688.41504    37946.351 
   82900    305.47623   -1470.1406    489.68502        394.5    -299.2922    37946.351 
   83000     294.8077   -1458.2965    494.97894    363.61871   -261.09428    37946.351 
   83100    306.74258   -1457.3524    490.38205    413.68513   -213.18561    37946.351 
   83200    290.75861   -1478.1367    520.43378    351.00832   -4.6373799    37946.351 
   83300    300.39619   -1484.5806    488.50814    356.01773    108.44461    37946.351 
   83400    304.87384    -1445.424     513.1234    439.94362   -122.10494    37946.351 
   83500    294.80653   -1436.9821    501.87081    391.81978   -681.89446    37946.351 
   83600    311.76172   -1434.9177    462.04202    430.37105   -661.80425    37946.351 
   83700     300.4038   -1425.4845    509.77797    436.41791   -518.66779    37946.351 
   83800     310.0035   -1466.5522    490.18849    418.96919   -331.88326    37946.351 
   83900    296.73377   -1483.6519    509.07759    361.03127   -194.96686    37946.351 
   84000    301.60186   -1447.1083    500.40316     410.8118    274.02582    37946.351 
   84100    312.05208   -1457.6075    497.45363     444.3998    121.15043    37946.351 
   84200    305.57848   -1502.6919    485.72269    358.44659   -44.565184    37946.351 
   84300    310.20026   -1470.0892    498.47076     424.6001   -279.51508    37946.351 
   84400    309.66179   -1476.5069    481.80958    399.09751    -301.8006    37946.351 
   84500    305.00951   -1465.6424    486.73031    393.94281    378.59962    37946.351 
   84600    295.61727    -1473.899    504.92605    361.60725    1036.5084    37946.351 
   84700    315.07309   -1492.6998    483.43274    408.88425    464.30272    37946.351 
   84800    296.72287   -1500.2572    484.10457    319.40387    437.89352    37946.351 
   84900    296.10261   -1488.5858    502.28562    346.46453   -143.39599    37946.351 
   85000    314.26926   -1487.1285    495.90783    423.31253    -294.6563    37946.351 
   85100    294.43168   -1479.5603    475.00462     320.6881   -624.38427    37946.351 
   85200    294.14752   -1475.5494    470.31399    318.72942   -975.92703    37946.351 
   85300    300.70582   -1496.3618    499.33369    356.45571   -546.89567    37946.351 
   85400    285.08466   -1472.3294    507.76405     318.6073   -350.37271    37946.351 
   85500    304.21569   -1509.4634     490.1481    349.96653     216.5959    37946.351 
   85600    295.62822   -1482.3822    502.64094    350.88822   -1.4896002    37946.351 
   85700    300.35153   -1536.8017    493.35768    308.44522    677.89956    37946.351 
   85800    307.51282   -1470.5497    509.48385    423.05648    407.01421    37946.351 
   85900     302.4115   -1482.5115    481.07721    359.72689    28.852545    37946.351 
   86000    289.23497   -1483.3417    472.12425    290.63589    280.68041    37946.351 
   86100    298.10118   -1451.2032     515.9947    406.55177    92.866988    37946.351 
   86200    301.70668   -1464.0116    492.27132     386.2485   -121.70081    37946.351 
   86300    299.10028   -1464.6523    505.73753    387.34257   -200.69574    37946.351 
   86400    302.42805   -1449.9771    504.14272    415.40126   -202.98982    37946.351 
   86500    295.42028   -1495.1835    478.65236    313.16236   -878.78645    37946.351 
   86600    310.37696   -1462.2543     498.9328    433.69236   -894.13053    37946.351 
   86700    295.27411   -1513.6479     500.3651    315.75281   -349.39839    37946.351 
   86800    304.59665   -1527.3169    484.63106    328.31077    67.148332    37946.351 
   86900    295.68291   -1542.7351    480.83148      268.972   -225.18956    37946.351 
   87000    304.27795   -1502.4463    490.60353     357.7193    1.4863136    37946.351 
   87100    301.49067   -1510.0515    483.13135    330.09632   -348.87585    37946.351 
   87200    298.79698   -1523.4787    494.67411    316.08759   -158.14747    37946.351 
   87300    307.03753   -1480.6413    504.79172    406.13345    78.928845    37946.351 
   87400    300.60799   -1465.2668    492.46256    380.23928    363.79091    37946.351 
[...]
  984800    300.67295   -1553.0063    499.97912    300.30869   -602.69047    37946.351 
  984900    293.14199   -1540.2075    469.39498    248.62641     -466.107    37946.351 
  985000    297.19593   -1521.7819    505.38679    321.29062     226.9693    37946.351 
  985100    295.88909   -1586.7066      470.357    215.45404   -502.21296    37946.351 
  985200    301.50724   -1522.4765      495.189    329.80359   -964.78485    37946.351 
  985300    303.21829   -1536.5541    497.72712    325.96555   -1028.7559    37946.351 
  985400    305.12819    -1574.276     502.1502    301.26325    -458.2796    37946.351 
  985500    303.46006   -1530.0235    488.52031    324.37756   -481.59192    37946.351 
  985600     298.3753   -1539.5729    484.59997    288.02125    -411.5802    37946.351 
  985700    296.70441   -1514.8889    490.15796    310.74254   -220.92093    37946.351 
  985800    296.07254   -1545.8764    503.07725    289.83021    334.73134    37946.351 
  985900    296.76789   -1549.0608    488.56726    275.26555    342.01402    37946.351 
  986000    295.96614    -1498.662    520.81617     354.3046    5.5510876    37946.351 
  986100    304.04491    -1547.197    494.44005    315.75623    212.04042    37946.351 
  986200    296.90734   -1525.3991     506.2023       317.19    172.58115    37946.351 
  986300    299.56019   -1503.7989     494.2713    338.79976    204.39755    37946.351 
  986400    302.07204   -1588.0899    496.51925    268.06261   -357.68848    37946.351 
  986500    301.88547   -1581.3586    502.59985    280.03474   -195.06122    37946.351 
  986600    291.23471   -1516.8816    513.66169    307.63424   -647.34329    37946.351 
  986700     296.4011   -1536.1936    472.69981    270.61445   -613.85983    37946.351 
  986800    295.90129   -1504.6746    486.53772    313.72169   -668.35035    37946.351 
  986900     300.1953   -1539.3718    509.13621     320.9504   -834.97879    37946.351 
  987000    302.31638   -1504.7351    482.81931    338.81726   -599.36103    37946.351 
  987100     310.3705   -1540.5486    514.08897    370.52514    482.31989    37946.351 
  987200    303.04041   -1494.2764    513.85984     383.5753    366.50133    37946.351 
  987300    298.00197   -1482.2424    496.69232    355.76371    190.29898    37946.351 
  987400    302.47144    -1479.044    538.81016    421.19715    345.69439    37946.351 
  987500    309.21345   -1442.8065    517.00887    465.97925    373.39143    37946.351 
  987600    300.36678   -1473.6034    526.04959    404.40405   -343.68207    37946.351 
  987700    307.24622    -1448.696    522.32736    456.55372   -395.14111    37946.351 
  987800     289.8385   -1442.0078    490.07281    352.63484   -469.19382    37946.351 
  987900    298.64552   -1454.5713    534.44315    424.08225    2.2129958    37946.351 
  988000    305.02027   -1425.1027    506.71291    454.51353   -247.43443    37946.351 
  988100    307.65573   -1474.6294    505.80754    415.94369   -389.23241    37946.351 
  988200    306.52561   -1464.5867     529.4061    444.49827    34.502273    37946.351 
  988300    299.64413   -1466.9222    526.92102    408.70397    661.68288    37946.351 
  988400    299.21959   -1448.0743    493.14734    391.86742    676.98601    37946.351 
  988500    308.42635   -1436.2346    518.15461    470.15416    714.77459    37946.351 
  988600    291.61762   -1481.2024    525.76181     357.1371    515.62649    37946.351 
  988700    308.82011   -1501.7686    519.19285    407.43074    577.89019    37946.351 
  988800    297.13667   -1511.1938    481.50745    307.73269   -142.25733    37946.351 
  988900    301.88507   -1460.9762    507.65048    405.46596   -111.99316    37946.351 
  989000    297.05594   -1486.5846     508.5911    359.06219    70.701923    37946.351 
  989100    314.92489   -1485.6344    476.77519    408.62502    416.12904    37946.351 
  989200    302.20051      -1488.2    508.89192    380.90341    518.52164    37946.351 
  989300    289.54461   -1496.9119    505.63205     311.9671   -84.759033    37946.351 
  989400    300.63367   -1453.3134    498.75835    398.60405   -205.38748    37946.351 
  989500    298.04801   -1453.0986    523.43738    411.85982    433.89815    37946.351 
  989600    296.44923   -1469.2613    492.83168    357.89521    723.31538    37946.351 
  989700    308.00082   -1491.2827    533.64915    428.68528    798.77223    37946.351 
  989800    295.19494    -1540.378    497.34882    285.65013    206.05621    37946.351 
  989900    299.26469   -1551.1912    503.85549    299.66154   -283.65337    37946.351 
  990000    290.61095   -1533.1154    489.41121    264.34243    66.928102    37946.351 
  990100    290.82436   -1510.9095    501.24977     299.3474   -129.04798    37946.351 
  990200    303.68726    -1493.954    495.52718    368.47659    310.15878    37946.351 
  990300    298.93955   -1528.1682      494.694    312.05966    613.79263    37946.351 
  990400    294.86662   -1522.6645    494.38136    298.91835    361.74854    37946.351 
  990500    302.42776   -1501.6627    491.26033    350.83195    135.50408    37946.351 
  990600    295.08286   -1490.5757    520.21081    357.80993      298.486    37946.351 
  990700    306.43612   -1511.2432    510.70189    378.73474    586.76071    37946.351 
  990800    299.14813   -1526.5933    479.26364    299.14299     55.38681    37946.351 
  990900    296.06616   -1506.1541    498.44579    324.89235    -42.33038    37946.351 
  991000    296.48414   -1485.6349    509.71018    358.55732     55.86933    37946.351 
  991100    292.72227   -1525.0329    497.38612    289.90292    137.81387    37946.351 
  991200    294.49833   -1538.2202    506.46241    293.78605     479.7628    37946.351 
  991300    294.60653   -1575.6916    485.12697    235.46619    733.79016    37946.351 
  991400    297.89679   -1506.4169    523.14812    357.57157    996.41435    37946.351 
  991500    300.22176   -1515.4138    494.80991    330.70126    360.67397    37946.351 
  991600    290.69047   -1505.2613    527.50144    330.64467    170.01989    37946.351 
  991700    305.65306   -1535.8592    516.29088    356.18322    568.17529    37946.351 
  991800    303.39372   -1516.0429    494.66931    344.20857    757.70293    37946.351 
  991900      294.277   -1501.5893    510.65472    333.61303    705.57982    37946.351 
  992000    298.26865   -1531.8641    503.83439    314.48435       158.37    37946.351 
  992100    297.40875   -1534.4684    485.15687    289.33216    596.18581    37946.351 
  992200    304.83311   -1514.5467    486.02526    343.53944   -149.27366    37946.351 
  992300    293.71124   -1510.3856     496.0944    307.70987   -273.85435    37946.351 
  992400    301.88688   -1456.9614    492.40897    394.24735   -451.09917    37946.351 
  992500     295.9681   -1488.9445    510.90788    354.12269   -327.25057    37946.351 
  992600    308.97182   -1498.0942    483.24165    375.83675   -272.36742    37946.351 
  992700    291.40248   -1540.0891    485.24223    256.76239   -324.47086    37946.351 
  992800    304.39885   -1520.4493    514.55068     364.2076    214.43011    37946.351 
  992900    299.46021   -1531.3631    502.60465    319.11891     251.0029    37946.351 
  993000    286.16565   -1532.4955    504.47581     260.0185    511.35606    37946.351 
  993100    297.59302    -1524.703    515.85542     330.6255    71.527849    37946.351 
  993200    301.15475   -1489.5641    496.23405    362.17451     -102.087    37946.351 
  993300    308.03034   -1482.6206    513.85301    417.68413    293.58052    37946.351 
  993400    307.71009   -1484.6255    510.34181    410.72653    205.03884    37946.351 
  993500    297.37245   -1526.4518    508.31507    320.34359    185.21181    37946.351 
  993600    296.00667   -1530.3881    497.25468    299.19941   -608.49666    37946.351 
  993700    297.18219   -1519.3894    513.15284    331.38737   -312.56996    37946.351 
  993800     300.3208   -1500.7283    489.64375     340.6663   -239.25719    37946.351 
  993900    299.78482   -1513.1658    471.23502    307.40767   -119.36869    37946.351 
  994000    303.71359   -1518.3289     490.6902     339.3832    -624.0224    37946.351 
  994100    304.92925   -1537.2185    508.70243    343.97756    -328.0346    37946.351 
  994200    304.72599   -1532.4563    472.46542    311.58789    62.375316    37946.351 
  994300    295.79821   -1527.5222    503.35985    307.23223      500.328    37946.351 
  994400    289.98958   -1489.1992     467.1963    283.24695   -16.694838    37946.351 
  994500     296.6178   -1494.5773    483.90331    324.40956   -250.29669    37946.351 
  994600    300.29978   -1504.4009    470.42947    317.68481   -149.36987    37946.351 
  994700    292.01669   -1445.4645    517.92925    386.83864   -602.65882    37946.351 
  994800    305.73442   -1467.3503    481.18429    389.95165   -508.95143    37946.351 
  994900    287.72252   -1483.4564    480.26843    291.85772   -664.83532    37946.351 
  995000    295.95331   -1508.8994    484.06389    307.25725   -578.24348    37946.351 
  995100    304.43672   -1512.6074     492.6136    350.28292   -743.26404    37946.351 
  995200    287.45191    -1438.883    509.36796    364.31271    -228.1477    37946.351 
  995300    293.94805   -1425.2877    516.63236    414.41165   -21.958896    37946.351 
  995400    291.54986   -1491.9049    531.27649    351.64422   -278.11506    37946.351 
  995500    298.28889    -1522.134     496.6101     317.0813   -255.27935    37946.351 
  995600    305.39795   -1492.5489     455.9029    337.95722   -118.42159    37946.351 
  995700    304.08142   -1453.6853    489.23595    404.22814   -487.52463    37946.351 
  995800    302.62192   -1484.1822    507.36455    385.29062   -807.42741    37946.351 
  995900    292.83015   -1485.9158    492.37842    324.49793   -478.92393    37946.351 
  996000    288.22711   -1487.9901    513.72129    323.04805   -972.56173    37946.351 
  996100    304.68752   -1468.1807    495.12026    398.34514   -556.73673    37946.351 
  996200    298.54544   -1471.4403    500.63472     372.9544   -897.71523    37946.351 
  996300     300.3879   -1455.6435    512.63383    409.04326   -139.41818    37946.351 
  996400    297.27878   -1447.4521    475.73297    366.33957   -152.16508    37946.351 
  996500    292.61182   -1455.0576    522.35285    384.34785    6.5144629    37946.351 
  996600    293.73384   -1472.2274    504.94521    354.82059     55.33364    37946.351 
  996700    302.17409   -1509.7027    465.87843    316.26834   -235.85057    37946.351 
  996800     311.8423   -1455.8038    458.15705    405.96266     104.7993    37946.351 
  996900    278.16597   -1492.2454    494.64534    254.43144    123.46071    37946.351 
  997000     300.7126    -1483.372    475.26433     345.4067   -54.681349    37946.351 
  997100    298.22238   -1497.5029    486.62817    331.43114    64.456147    37946.351 
  997200    297.77914   -1439.5946    483.72303    384.43922   -410.70964    37946.351 
  997300    292.58309   -1424.0624    492.76441     385.6253   -785.29515    37946.351 
  997400    302.52694   -1446.6753    528.24391    443.24938    -902.8003    37946.351 
  997500    291.53785   -1470.9499    495.45603    336.72478   -681.89481    37946.351 
  997600    301.76869   -1446.1823    501.60385     413.6894    -704.1087    37946.351 
  997700     301.6722   -1428.7801     495.3838    424.43731   -295.28036    37946.351 
  997800     293.0937   -1416.5953    506.57619    409.20244   -322.30564    37946.351 
  997900    298.46849   -1392.0938    514.56454    465.88436   -542.80322    37946.351 
  998000    310.96005   -1405.4445    492.07331    486.26723   -357.88984    37946.351 
  998100    292.14244   -1392.8585    511.51242    433.59383   -87.137825    37946.351 
  998200    300.48003    -1411.813    490.32533    430.97992   -35.861273    37946.351 
  998300     304.3267   -1435.6339    521.75235        455.9    431.49915    37946.351 
  998400    294.48347   -1435.7426    495.09546    384.82979   -142.03766    37946.351 
  998500    303.15415   -1435.1481    485.29587    414.65168    123.49687    37946.351 
  998600    313.41284   -1480.6102    495.90049    425.96876     201.1109    37946.351 
  998700    297.32195   -1473.2579    502.14009    367.13517   -84.676242    37946.351 
  998800    298.36125   -1516.1937    492.35874    319.09593   -949.35362    37946.351 
  998900    304.45363   -1499.0684    486.45233    357.73674   -129.37843    37946.351 
  999000    289.79915   -1535.2228      507.566    276.73586    206.34581    37946.351 
  999100    309.84445    -1477.594    497.18152    414.20453    349.66496    37946.351 
  999200     303.1694    -1500.743    475.25122    339.08068    347.27183    37946.351 
  999300    299.13987   -1535.0637    468.25704    279.62879    95.943628    37946.351 
  999400    307.57684   -1522.8716    492.16933    353.70819   -325.18086    37946.351 
  999500    298.96596   -1508.3052    490.06475    327.41221   -335.84093    37946.351 
  999600    300.92222   -1527.2393    514.27977     341.4984    117.38598    37946.351 
  999700    305.72931   -1546.7035    497.63634    327.02748    130.43975    37946.351 
  999800    299.24445   -1557.7169    482.90869      272.098     763.9702    37946.351 
  999900    291.85169   -1478.0879     502.6333    338.17666    336.86015    37946.351 
 1000000    296.68947   -1521.5926     510.5708    324.38442    155.14133    37946.351 
 1000100    308.80452   -1540.6181    497.79417    347.11233    64.371869    37946.351 
 1000200    301.04813   -1526.2974    514.91429    343.64154   -78.031588    37946.351 
 1000300    304.97737   -1489.3341    514.89671    398.27278   -290.62481    37946.351 
 1000400    293.19068   -1490.6828     492.6598    321.63506   -605.85423    37946.351 
 1000500     303.5719   -1482.9724    482.66286    366.07463    34.345734    37946.351 
 1000600    297.25168   -1492.3032    512.17098    357.80448    30.777871    37946.351 
 1000700    299.03185   -1512.7721    485.18691    318.36403   -2.5189515    37946.351 
 1000800    298.69689   -1475.0913    494.02341    363.37379   -379.72116    37946.351 
 1000900    308.11048   -1467.0971    501.51721    421.23256   -831.01907    37946.351 
 1001000    293.85268    -1472.401    499.60919    349.84594   -913.31839    37946.351 
 1001100    292.61643   -1488.9598    491.11132    319.22482   -826.35607    37946.351 
 1001200    306.31854   -1481.2624    494.03207    391.51654   -1281.9926    37946.351 
 1001300    300.46603   -1459.5065    496.82429    389.72231   -607.76346    37946.351 
 1001400    300.55357   -1467.1826    507.13579    392.75172    66.521046    37946.351 
 1001500    297.30269   -1455.0875    499.10644    382.18524    380.38683    37946.351 
 1001600    310.82098   -1478.7562    529.77726    450.03353    426.00779    37946.351 
 1001700     294.3646   -1473.5724    520.48028    371.84974   -50.383182    37946.351 
 1001800    292.92709    -1480.178    483.20456    321.49822    -182.4406    37946.351 
 1001900    305.70299   -1508.4806    480.57735    348.07297    233.56697    37946.351 
 1002000    298.04919   -1500.5694    492.22564    333.18253    23.453876    37946.351 
 1002100      299.088   -1474.2141    498.72792    370.71581    372.97737    37946.351 
 1002200    305.37918   -1487.3285    510.12413     397.3144    474.63635    37946.351 
 1002300    294.91129   -1461.3281    521.28352    387.35799    661.48459    37946.351 
 1002400    291.89154   -1502.9916    521.12322     331.9422    403.44547    37946.351 
 1002500    298.20254   -1500.4388    521.97893     363.7567    99.925591    37946.351 
 1002600     300.5346    -1468.063      509.048    393.69817    220.79385    37946.351 
 1002700    300.82788    -1481.782    500.42604    372.67728     650.3381    37946.351 
 1002800     301.1915   -1441.9657    494.97352    408.67772    478.15999    37946.351 
 1002900    294.61069   -1458.0176    518.86815    386.90011   -316.64114    37946.351 
 1003000    303.08331   -1433.6964    501.81405    432.30266    76.892018    37946.351 
 1003100    299.47407   -1433.3116    483.73897    398.36708    67.588648    37946.351 
 1003200    291.63661   -1458.9205    507.83441    361.57706   -218.22416    37946.351 
 1003300    297.96911   -1475.0572    517.83951    383.94814    55.618296    37946.351 
 1003400     302.4041   -1484.1299    485.49762    362.49559   -23.590119    37946.351 
 1003500    295.07075     -1468.53    516.06551    375.65578    13.326697    37946.351 
 1003600    306.81363   -1454.3671    511.63634    438.24453    129.02506    37946.351 
 1003700    296.60376    -1458.928    507.82463    383.91703    297.28144    37946.351 
 1003800    304.32073   -1472.1379    504.39931    402.01607     349.1906    37946.351 
 1003900    306.50513   -1479.1146    530.10252    430.57465    448.20189    37946.351 
 1004000     309.3733    -1464.032    491.71398    420.17838    288.63382    37946.351 
 1004100    304.65525   -1476.3224    529.58943    424.52738   -253.55268    37946.351 
 1004200    299.75277   -1455.5227    493.66552    387.33702   -218.07606    37946.351 
 1004300      300.089   -1490.7856      512.996    372.91796    754.56625    37946.351 
 1004400    302.24802   -1534.9518    476.85336    302.32694     162.7402    37946.351 
 1004500     298.4535   -1511.3982     508.9307    340.87861    368.32936    37946.351 
 1004600    305.38057   -1501.2511     495.5826    368.85653   -118.02964    37946.351 
 1004700     298.9385    -1478.013    498.27402    365.79013    112.17737    37946.351 
 1004800     303.8998    -1458.649    520.58689    429.79789   -134.42113    37946.351 
 1004900    297.16596   -1454.2462    490.68691    373.99162   -99.141443    37946.351 
 1005000    302.00852   -1449.3421    514.16313    424.16838    181.18893    37946.351 
 1005100    296.35264   -1459.6078    484.59131    358.87363    -106.1763    37946.351 
 1005200    304.21887   -1507.9064    499.38393    360.77375    141.59162    37946.351 
 1005300    308.21238   -1469.2475    515.23547    433.25902    293.88886    37946.351 
 1005400    300.83484   -1475.5029    504.24044    382.80215    201.64026    37946.351 
 1005413    290.24198   -1476.2561    495.39773     325.5275   -253.33144    37946.351 
Loop time of 599.229 on 32 procs for 1000000 steps with 1511 atoms

Performance: 144.185 ns/day, 0.166 hours/ns, 1668.812 timesteps/s
100.0% CPU use with 32 MPI tasks x no OpenMP threads

MPI task timing breakdown:
Section |  min time  |  avg time  |  max time  |%varavg| %total
---------------------------------------------------------------
Pair    | 249.97     | 271.21     | 297.86     |  73.1 | 45.26
Bond    | 1.4134     | 1.5288     | 1.6405     |   5.0 |  0.26
Neigh   | 39.154     | 39.235     | 39.313     |   0.9 |  6.55
Comm    | 247.69     | 274.3      | 295.55     |  72.6 | 45.78
Output  | 0.38546    | 0.40535    | 0.91026    |  14.2 |  0.07
Modify  | 9.2166     | 9.4166     | 9.6691     |   3.6 |  1.57
Other   |            | 3.137      |            |       |  0.52

Nlocal:        47.2188 ave          86 max          24 min
Histogram: 2 9 5 4 2 3 2 2 2 1
Nghost:        1972.81 ave        2015 max        1921 min
Histogram: 2 2 2 1 5 4 8 5 0 3
Neighs:        5237.88 ave       11919 max        2170 min
Histogram: 6 8 6 4 3 0 1 0 3 1

Total # of neighbors = 167612
Ave neighs/atom = 110.92786
Ave special neighs/atom = 2.0198544
Neighbor list builds = 49878
Dangerous builds = 0

# Output the system volume
variable v equal vol
print 'The system volume is $v'
The system volume is 37946.3507361185

# Outputs
variable A equal xhi-xlo
variable B equal yhi-ylo
variable C equal zhi-zlo
variable D equal xy
variable E equal xz
variable F equal yz
print 'Lattice vectors'
Lattice vectors
print '$A 0 0'
33.6039249052951 0 0
print '$D $B 0'
0 33.6039249052951 0
print '$E $F $C'
0 0 33.6039249052951
Total wall time: 0:10:04
