LAMMPS data file
 1507 atoms
 1006 bonds
 509 angles
 6 dihedrals
 1 impropers
 5 atom types
 4 bond types
 3 angle types
 1 dihedral types
 1 improper types
 0 15 xlo xhi
 0 15 ylo yhi
 0 15 zlo zhi
 0 0 0 xy xz yz

# Atom types
#
# 1 N_2
# 2 C_3
# 3 H__HB
# 4 H_
# 5 O_3

# Bond Coeffs
#
# 1 N_2*C_3
# 2 N_2*H__HB
# 3 C_3*H_
# 4 O_3*H__HB

# Angle Coeffs
#
# 1 N_2
# 2 C_3
# 3 O_3

# Dihedral Coeffs
#
# 1 B1

# Inversion Coeffs
#
# 1 1

 Masses

 1 14.01
 2 12.01
 3 1.01
 4 1.01
 5 16

 Atoms # full

1 1 1 0 9.17818828531195 4.42173528640655 13.5898258455972
2 1 2 0 9.30082585337776 5.80187922217782 13.9150905431171
3 1 3 0 8.2692555750685 4.08280093046047 13.5546362077914
4 1 4 0 8.30332086466997 6.21541280904714 14.0650407349611
5 1 4 0 9.86874300334033 5.930250851238 14.8379409132372
6 1 4 0 9.78044314909656 6.34736572853643 13.1007330227195
7 1 3 0 10.1639634766934 3.52114467005185 13.3233742293689
8 2 3 0 7.72366989796981 7.13525918353349 13.9348438940942
9 2 5 0 8.68366989796981 7.13525918353349 13.9348438940942
10 2 3 0 8.92366989796981 6.20525918353349 13.9348438940942
11 3 3 0 7.83860263109207 9.2197301766742 1.28219732316211
12 3 5 0 8.79860263109207 9.2197301766742 1.28219732316211
13 3 3 0 9.03860263109207 8.2897301766742 1.28219732316211
14 4 3 0 11.0922778250836 3.84609770070761 10.7157054415438
15 4 5 0 12.0522778250836 3.84609770070761 10.7157054415438
16 4 3 0 12.2922778250836 2.91609770070761 10.7157054415438
17 5 3 0 9.69705326526426 10.8715090276115 11.7447303445078
18 5 5 0 10.6570532652643 10.8715090276115 11.7447303445078
19 5 3 0 10.8970532652643 9.94150902761147 11.7447303445078
20 6 3 0 10.5158198384754 0.67187834222801 2.58432531729341
21 6 5 0 11.4758198384754 0.67187834222801 2.58432531729341
22 6 3 0 11.7158198384754 -0.25812165777199 2.58432531729341
23 7 3 0 13.8273459083587 6.79230242193676 6.9846849096939
24 7 5 0 14.7873459083587 6.79230242193676 6.9846849096939
25 7 3 0 15.0273459083587 5.86230242193677 6.9846849096939
26 8 3 0 1.23432180538774 3.14233915804885 0.511308830464259
27 8 5 0 2.19432180538774 3.14233915804885 0.511308830464259
28 8 3 0 2.43432180538774 2.21233915804885 0.511308830464259
29 9 3 0 2.28979278981686 11.6139173744619 11.6649789805524
30 9 5 0 3.24979278981686 11.6139173744619 11.6649789805524
31 9 3 0 3.48979278981686 10.6839173744619 11.6649789805524
32 10 3 0 1.42235652121715 9.07248203217983 14.1109123500064
33 10 5 0 2.38235652121715 9.07248203217983 14.1109123500064
34 10 3 0 2.62235652121715 8.14248203217983 14.1109123500064
35 11 3 0 5.26496029386297 9.09528755623847 8.73592279851437
36 11 5 0 6.22496029386297 9.09528755623847 8.73592279851437
37 11 3 0 6.46496029386297 8.16528755623847 8.73592279851437
38 12 3 0 -0.430005226079375 13.3139104691241 1.07820637989789
39 12 5 0 0.529994773920625 13.3139104691241 1.07820637989789
40 12 3 0 0.769994773920625 12.3839104691241 1.07820637989789
41 13 3 0 7.05797458344139 11.1093098720908 6.64554882561788
42 13 5 0 8.01797458344139 11.1093098720908 6.64554882561788
43 13 3 0 8.25797458344139 10.1793098720908 6.64554882561788
44 14 3 0 8.58966760148294 5.1894096452184 6.25916251447052
45 14 5 0 9.54966760148294 5.1894096452184 6.25916251447052
46 14 3 0 9.78966760148294 4.2594096452184 6.25916251447052
47 15 3 0 9.71675311957486 12.7457777135447 4.02318546781316
48 15 5 0 10.6767531195749 12.7457777135447 4.02318546781316
49 15 3 0 10.9167531195749 11.8157777135447 4.02318546781316
50 16 3 0 9.27513700953685 6.29268025554717 12.0029011066072
51 16 5 0 10.2351370095368 6.29268025554717 12.0029011066072
52 16 3 0 10.4751370095368 5.36268025554717 12.0029011066072
53 17 3 0 3.1353875789512 5.61428226105869 0.556918065994978
54 17 5 0 4.0953875789512 5.61428226105869 0.556918065994978
55 17 3 0 4.3353875789512 4.68428226105869 0.556918065994978
56 18 3 0 5.86498328179121 0.707416172781959 5.7217872608453
57 18 5 0 6.82498328179121 0.707416172781959 5.7217872608453
58 18 3 0 7.06498328179121 -0.222583827218041 5.7217872608453
59 19 3 0 10.4953680785559 14.8084852627385 7.46903256629594
60 19 5 0 11.4553680785559 14.8084852627385 7.46903256629594
61 19 3 0 11.6953680785559 13.8784852627385 7.46903256629594
62 20 3 0 6.76109827400185 0.894546341560781 1.36779770487919
63 20 5 0 7.72109827400185 0.894546341560781 1.36779770487919
64 20 3 0 7.96109827400185 -0.035453658439219 1.36779770487919
65 21 3 0 3.9738268316444 5.24852180195972 7.38127312157303
66 21 5 0 4.9338268316444 5.24852180195972 7.38127312157303
67 21 3 0 5.1738268316444 4.31852180195972 7.38127312157303
68 22 3 0 10.2484299048968 9.62352297659032 7.65354618430138
69 22 5 0 11.2084299048968 9.62352297659032 7.65354618430138
70 22 3 0 11.4484299048968 8.69352297659032 7.65354618430138
71 23 3 0 12.0174370198231 2.0135676620435 6.1625767161604
72 23 5 0 12.9774370198231 2.0135676620435 6.1625767161604
73 23 3 0 13.2174370198231 1.0835676620435 6.1625767161604
74 24 3 0 8.29489430456422 6.27313673071563 2.05130143091083
75 24 5 0 9.25489430456422 6.27313673071563 2.05130143091083
76 24 3 0 9.49489430456422 5.34313673071563 2.05130143091083
77 25 3 0 7.0240224273596 9.67059036641382 2.44136302499101
78 25 5 0 7.9840224273596 9.67059036641382 2.44136302499101
79 25 3 0 8.2240224273596 8.74059036641382 2.44136302499101
80 26 3 0 1.68263483603485 5.38416978362016 3.59304243000224
81 26 5 0 2.64263483603485 5.38416978362016 3.59304243000224
82 26 3 0 2.88263483603485 4.45416978362016 3.59304243000224
83 27 3 0 2.20479022988118 10.3313599123526 7.68857913790271
84 27 5 0 3.16479022988118 10.3313599123526 7.68857913790271
85 27 3 0 3.40479022988118 9.40135991235264 7.68857913790271
86 28 3 0 3.82435276798904 4.74343982449733 11.4223215670791
87 28 5 0 4.78435276798904 4.74343982449733 11.4223215670791
88 28 3 0 5.02435276798904 3.81343982449733 11.4223215670791
89 29 3 0 -0.324500548448414 12.1558584533073 5.2216983656399
90 29 5 0 0.635499451551586 12.1558584533073 5.2216983656399
91 29 3 0 0.875499451551586 11.2258584533073 5.2216983656399
92 30 3 0 2.13925767151639 2.54544128937647 7.20502949785441
93 30 5 0 3.09925767151639 2.54544128937647 7.20502949785441
94 30 3 0 3.33925767151639 1.61544128937647 7.20502949785441
95 31 3 0 3.94612213058397 11.3542310001235 12.0437401451636
96 31 5 0 4.90612213058397 11.3542310001235 12.0437401451636
97 31 3 0 5.14612213058397 10.4242310001235 12.0437401451636
98 32 3 0 13.140191681888 6.1499871236179 9.72885440220125
99 32 5 0 14.100191681888 6.1499871236179 9.72885440220125
100 32 3 0 14.340191681888 5.2199871236179 9.72885440220125
101 33 3 0 13.9706636492349 10.5798188845534 4.36554030398838
102 33 5 0 14.9306636492349 10.5798188845534 4.36554030398838
103 33 3 0 15.1706636492349 9.64981888455339 4.36554030398838
104 34 3 0 9.02143198225647 12.9900037617795 5.61089306138456
105 34 5 0 9.98143198225647 12.9900037617795 5.61089306138456
106 34 3 0 10.2214319822565 12.0600037617795 5.61089306138456
107 35 3 0 10.8027050206158 5.94154252246022 4.89930263604037
108 35 5 0 11.7627050206158 5.94154252246022 4.89930263604037
109 35 3 0 12.0027050206158 5.01154252246022 4.89930263604037
110 36 3 0 1.8034980660025 10.8402456603386 4.81484956922941
111 36 5 0 2.7634980660025 10.8402456603386 4.81484956922941
112 36 3 0 3.0034980660025 9.91024566033855 4.81484956922941
113 37 3 0 7.90303201225586 2.93750492547639 8.21980298263952
114 37 5 0 8.86303201225586 2.93750492547639 8.21980298263952
115 37 3 0 9.10303201225586 2.00750492547639 8.21980298263952
116 38 3 0 3.82989296500571 1.48709432030097 8.65382704418153
117 38 5 0 4.78989296500571 1.48709432030097 8.65382704418153
118 38 3 0 5.02989296500571 0.557094320300966 8.65382704418153
119 39 3 0 3.27985254043713 10.0312385386229 2.11011922219768
120 39 5 0 4.23985254043713 10.0312385386229 2.11011922219768
121 39 3 0 4.47985254043713 9.10123853862286 2.11011922219768
122 40 3 0 8.66303955481388 1.43227603793144 7.85839898278937
123 40 5 0 9.62303955481388 1.43227603793144 7.85839898278937
124 40 3 0 9.86303955481388 0.502276037931442 7.85839898278937
125 41 3 0 10.565981903784 8.21124651393853 3.32849350408651
126 41 5 0 11.525981903784 8.21124651393853 3.32849350408651
127 41 3 0 11.765981903784 7.28124651393853 3.32849350408651
128 42 3 0 9.3606481204927 4.92728716851212 12.9637206718326
129 42 5 0 10.3206481204927 4.92728716851212 12.9637206718326
130 42 3 0 10.5606481204927 3.99728716851212 12.9637206718326
131 43 3 0 14.1506841829699 14.4339045374095 5.33336147549562
132 43 5 0 15.1106841829699 14.4339045374095 5.33336147549562
133 43 3 0 15.3506841829699 13.5039045374095 5.33336147549562
134 44 3 0 6.00204454662278 0.874687985461205 3.57028094585985
135 44 5 0 6.96204454662278 0.874687985461205 3.57028094585985
136 44 3 0 7.20204454662278 -0.0553120145387948 3.57028094585985
137 45 3 0 2.2590804348886 13.1338968923688 5.35414077923633
138 45 5 0 3.2190804348886 13.1338968923688 5.35414077923633
139 45 3 0 3.4590804348886 12.2038968923688 5.35414077923633
140 46 3 0 3.23075017819181 3.04409178364091 4.55606932402588
141 46 5 0 4.19075017819181 3.04409178364091 4.55606932402588
142 46 3 0 4.43075017819181 2.11409178364091 4.55606932402588
143 47 3 0 13.307842663927 1.45693495095707 2.31760333059356
144 47 5 0 14.267842663927 1.45693495095707 2.31760333059356
145 47 3 0 14.507842663927 0.526934950957075 2.31760333059356
146 48 3 0 0.232921465504915 13.7760456876736 8.35180344991386
147 48 5 0 1.19292146550491 13.7760456876736 8.35180344991386
148 48 3 0 1.43292146550491 12.8460456876736 8.35180344991386
149 49 3 0 11.3415530898795 8.1056626447849 9.3426383973565
150 49 5 0 12.3015530898795 8.1056626447849 9.3426383973565
151 49 3 0 12.5415530898795 7.1756626447849 9.3426383973565
152 50 3 0 10.8289912766498 11.9042004299723 3.16124467877671
153 50 5 0 11.7889912766498 11.9042004299723 3.16124467877671
154 50 3 0 12.0289912766498 10.9742004299723 3.16124467877671
155 51 3 0 1.91513423153199 1.36639370973222 12.577148869168
156 51 5 0 2.87513423153199 1.36639370973222 12.577148869168
157 51 3 0 3.11513423153199 0.43639370973222 12.577148869168
158 52 3 0 3.21726344802417 6.54066578642465 14.8260834196117
159 52 5 0 4.17726344802417 6.54066578642465 14.8260834196117
160 52 3 0 4.41726344802417 5.61066578642465 14.8260834196117
161 53 3 0 6.37814582951367 0.458731088265777 11.1151377588976
162 53 5 0 7.33814582951367 0.458731088265777 11.1151377588976
163 53 3 0 7.57814582951367 -0.471268911734223 11.1151377588976
164 54 3 0 11.1044989018422 10.3209227874782 13.7853047309909
165 54 5 0 12.0644989018422 10.3209227874782 13.7853047309909
166 54 3 0 12.3044989018422 9.39092278747819 13.7853047309909
167 55 3 0 0.853627882171422 6.08941941795871 2.24664228153415
168 55 5 0 1.81362788217142 6.08941941795871 2.24664228153415
169 55 3 0 2.05362788217142 5.15941941795871 2.24664228153415
170 56 3 0 4.21105714791454 14.7585283026006 13.3253986935597
171 56 5 0 5.17105714791454 14.7585283026006 13.3253986935597
172 56 3 0 5.41105714791454 13.8285283026006 13.3253986935597
173 57 3 0 2.33564734619111 7.99544868915342 3.44391144812107
174 57 5 0 3.29564734619111 7.99544868915342 3.44391144812107
175 57 3 0 3.53564734619111 7.06544868915342 3.44391144812107
176 58 3 0 2.17148790528998 3.53316357516684 2.714169571409
177 58 5 0 3.13148790528998 3.53316357516684 2.714169571409
178 58 3 0 3.37148790528998 2.60316357516684 2.714169571409
179 59 3 0 2.26209584550932 9.70856123994105 5.84710851428099
180 59 5 0 3.22209584550932 9.70856123994105 5.84710851428099
181 59 3 0 3.46209584550932 8.77856123994105 5.84710851428099
182 60 3 0 7.07924350907095 10.3376216375642 11.2212773028295
183 60 5 0 8.03924350907095 10.3376216375642 11.2212773028295
184 60 3 0 8.27924350907095 9.40762163756415 11.2212773028295
185 61 3 0 13.6630046779476 6.31463206530549 9.30554685881361
186 61 5 0 14.6230046779476 6.31463206530549 9.30554685881361
187 61 3 0 14.8630046779476 5.38463206530549 9.30554685881361
188 62 3 0 6.11614923851565 4.86498988507315 7.4221614736598
189 62 5 0 7.07614923851565 4.86498988507315 7.4221614736598
190 62 3 0 7.31614923851565 3.93498988507316 7.4221614736598
191 63 3 0 9.196954964865 13.2155602976587 2.683975888649
192 63 5 0 10.156954964865 13.2155602976587 2.683975888649
193 63 3 0 10.396954964865 12.2855602976587 2.683975888649
194 64 3 0 5.2606021512486 2.16810200637206 11.2854028330185
195 64 5 0 6.2206021512486 2.16810200637206 11.2854028330185
196 64 3 0 6.4606021512486 1.23810200637206 11.2854028330185
197 65 3 0 4.99981651824899 5.15429797856137 4.1943795257248
198 65 5 0 5.95981651824899 5.15429797856137 4.1943795257248
199 65 3 0 6.19981651824899 4.22429797856137 4.1943795257248
200 66 3 0 4.67614350534976 11.9278163408767 1.70041799079627
201 66 5 0 5.63614350534976 11.9278163408767 1.70041799079627
202 66 3 0 5.87614350534976 10.9978163408767 1.70041799079627
203 67 3 0 8.10215312565677 2.01327673316933 7.32315814937465
204 67 5 0 9.06215312565677 2.01327673316933 7.32315814937465
205 67 3 0 9.30215312565677 1.08327673316933 7.32315814937465
206 68 3 0 12.8988272188883 12.2340009842906 2.38174110883847
207 68 5 0 13.8588272188883 12.2340009842906 2.38174110883847
208 68 3 0 14.0988272188883 11.3040009842906 2.38174110883847
209 69 3 0 3.11607352618128 4.03031272738241 10.7523965835571
210 69 5 0 4.07607352618128 4.03031272738241 10.7523965835571
211 69 3 0 4.31607352618128 3.10031272738241 10.7523965835571
212 70 3 0 13.4348992472235 4.48642408516258 0.532987449551001
213 70 5 0 14.3948992472235 4.48642408516258 0.532987449551001
214 70 3 0 14.6348992472235 3.55642408516258 0.532987449551001
215 71 3 0 7.37771434986033 0.883963640490547 8.68975786725059
216 71 5 0 8.33771434986033 0.883963640490547 8.68975786725059
217 71 3 0 8.57771434986033 -0.0460363595094532 8.68975786725059
218 72 3 0 8.16866411405615 7.22542805521749 14.0272157534491
219 72 5 0 9.12866411405616 7.22542805521749 14.0272157534491
220 72 3 0 9.36866411405616 6.29542805521749 14.0272157534491
221 73 3 0 3.659429128021 3.00374801428057 12.6069231529254
222 73 5 0 4.619429128021 3.00374801428057 12.6069231529254
223 73 3 0 4.859429128021 2.07374801428057 12.6069231529254
224 74 3 0 5.66149469043128 0.925328297717497 4.86860658042133
225 74 5 0 6.62149469043128 0.925328297717497 4.86860658042133
226 74 3 0 6.86149469043128 -0.0046717022825033 4.86860658042133
227 75 3 0 6.89208152049221 11.6815993321966 0.162771055474877
228 75 5 0 7.85208152049221 11.6815993321966 0.162771055474877
229 75 3 0 8.09208152049221 10.7515993321966 0.162771055474877
230 76 3 0 12.565963012604 13.8977192940097 3.32908332115039
231 76 5 0 13.525963012604 13.8977192940097 3.32908332115039
232 76 3 0 13.765963012604 12.9677192940097 3.32908332115039
233 77 3 0 11.530315452693 8.03678354871459 7.1922955987975
234 77 5 0 12.490315452693 8.03678354871459 7.1922955987975
235 77 3 0 12.730315452693 7.10678354871459 7.1922955987975
236 78 3 0 0.422225885996595 3.00052581861615 7.51454392913729
237 78 5 0 1.3822258859966 3.00052581861615 7.51454392913729
238 78 3 0 1.6222258859966 2.07052581861615 7.51454392913729
239 79 3 0 13.277844660189 1.05333184049465 13.4123501856811
240 79 5 0 14.237844660189 1.05333184049465 13.4123501856811
241 79 3 0 14.477844660189 0.123331840494648 13.4123501856811
242 80 3 0 2.80412874810398 3.42766198487021 1.07089811121114
243 80 5 0 3.76412874810398 3.42766198487021 1.07089811121114
244 80 3 0 4.00412874810398 2.49766198487021 1.07089811121114
245 81 3 0 1.82855204955675 11.7041796310246 1.8805421423167
246 81 5 0 2.78855204955675 11.7041796310246 1.8805421423167
247 81 3 0 3.02855204955675 10.7741796310246 1.8805421423167
248 82 3 0 4.7341780881118 1.82622859528288 11.6344090620987
249 82 5 0 5.6941780881118 1.82622859528288 11.6344090620987
250 82 3 0 5.9341780881118 0.896228595282882 11.6344090620987
251 83 3 0 10.6493974376656 0.988600480314344 10.2721585636027
252 83 5 0 11.6093974376656 0.988600480314344 10.2721585636027
253 83 3 0 11.8493974376656 0.0586004803143441 10.2721585636027
254 84 3 0 1.35910751807503 13.726514772689 12.9493099276442
255 84 5 0 2.31910751807503 13.726514772689 12.9493099276442
256 84 3 0 2.55910751807503 12.796514772689 12.9493099276442
257 85 3 0 13.9063931435533 6.44801249419339 4.09155608969741
258 85 5 0 14.8663931435533 6.44801249419339 4.09155608969741
259 85 3 0 15.1063931435533 5.51801249419339 4.09155608969741
260 86 3 0 4.23362168876454 7.87897265906446 5.10491069289856
261 86 5 0 5.19362168876454 7.87897265906446 5.10491069289856
262 86 3 0 5.43362168876454 6.94897265906446 5.10491069289856
263 87 3 0 1.89318135657348 8.9486932246387 12.5792124588042
264 87 5 0 2.85318135657348 8.9486932246387 12.5792124588042
265 87 3 0 3.09318135657348 8.0186932246387 12.5792124588042
266 88 3 0 9.25068374999799 12.5046807799395 14.9845987348817
267 88 5 0 10.210683749998 12.5046807799395 14.9845987348817
268 88 3 0 10.450683749998 11.5746807799395 14.9845987348817
269 89 3 0 5.50975228819996 2.98534486483783 2.37635764991865
270 89 5 0 6.46975228819996 2.98534486483783 2.37635764991865
271 89 3 0 6.70975228819996 2.05534486483783 2.37635764991865
272 90 3 0 8.53099252955988 1.46727751050144 13.8564043329097
273 90 5 0 9.49099252955988 1.46727751050144 13.8564043329097
274 90 3 0 9.73099252955988 0.537277510501444 13.8564043329097
275 91 3 0 2.79376186707057 13.2006338918023 12.5454289256595
276 91 5 0 3.75376186707057 13.2006338918023 12.5454289256595
277 91 3 0 3.99376186707057 12.2706338918023 12.5454289256595
278 92 3 0 10.0210671387333 9.13888469495811 7.71544577437453
279 92 5 0 10.9810671387333 9.13888469495811 7.71544577437453
280 92 3 0 11.2210671387333 8.20888469495811 7.71544577437453
281 93 3 0 11.0232647617534 6.19853442226537 10.8729619451333
282 93 5 0 11.9832647617534 6.19853442226537 10.8729619451333
283 93 3 0 12.2232647617534 5.26853442226537 10.8729619451333
284 94 3 0 10.4734377579018 10.2053215207439 10.5215932521969
285 94 5 0 11.4334377579018 10.2053215207439 10.5215932521969
286 94 3 0 11.6734377579018 9.27532152074389 10.5215932521969
287 95 3 0 8.9430628046114 11.1758820483834 7.00785694993101
288 95 5 0 9.9030628046114 11.1758820483834 7.00785694993101
289 95 3 0 10.1430628046114 10.2458820483834 7.00785694993101
290 96 3 0 3.25724879323505 14.8204860560969 3.19870462291874
291 96 5 0 4.21724879323505 14.8204860560969 3.19870462291874
292 96 3 0 4.45724879323505 13.8904860560969 3.19870462291874
293 97 3 0 3.66214273424819 12.4970449499693 5.49248892464675
294 97 5 0 4.62214273424819 12.4970449499693 5.49248892464675
295 97 3 0 4.86214273424819 11.5670449499693 5.49248892464675
296 98 3 0 6.61753037522547 6.4421798665449 2.44802102562971
297 98 5 0 7.57753037522547 6.4421798665449 2.44802102562971
298 98 3 0 7.81753037522547 5.5121798665449 2.44802102562971
299 99 3 0 0.261725690653548 10.1194311356544 12.3761101963464
300 99 5 0 1.22172569065355 10.1194311356544 12.3761101963464
301 99 3 0 1.46172569065355 9.18943113565445 12.3761101963464
302 100 3 0 8.01589386697859 10.9533646578807 14.7361309756525
303 100 5 0 8.97589386697859 10.9533646578807 14.7361309756525
304 100 3 0 9.21589386697859 10.0233646578807 14.7361309756525
305 101 3 0 10.6816607170925 7.27827410021797 4.02774213580415
306 101 5 0 11.6416607170925 7.27827410021797 4.02774213580415
307 101 3 0 11.8816607170925 6.34827410021797 4.02774213580415
308 102 3 0 10.0737347539701 4.88028488162905 1.49410540703684
309 102 5 0 11.0337347539701 4.88028488162905 1.49410540703684
310 102 3 0 11.2737347539701 3.95028488162905 1.49410540703684
311 103 3 0 8.21283883226104 7.02653288649395 5.91659036348574
312 103 5 0 9.17283883226104 7.02653288649395 5.91659036348574
313 103 3 0 9.41283883226104 6.09653288649395 5.91659036348574
314 104 3 0 6.71394639459439 2.37338666845113 8.17511089146137
315 104 5 0 7.67394639459439 2.37338666845113 8.17511089146137
316 104 3 0 7.91394639459439 1.44338666845113 8.17511089146137
317 105 3 0 13.9861509266496 4.98518968041986 12.2533439006656
318 105 5 0 14.9461509266496 4.98518968041986 12.2533439006656
319 105 3 0 15.1861509266496 4.05518968041986 12.2533439006656
320 106 3 0 8.15739250436425 9.13763856439851 6.49810213828459
321 106 5 0 9.11739250436425 9.13763856439851 6.49810213828459
322 106 3 0 9.35739250436425 8.20763856439851 6.49810213828459
323 107 3 0 11.284637470236 3.75809424481355 5.08709607180208
324 107 5 0 12.244637470236 3.75809424481355 5.08709607180208
325 107 3 0 12.484637470236 2.82809424481355 5.08709607180208
326 108 3 0 0.386545227812603 9.46274739032611 6.97795500280336
327 108 5 0 1.3465452278126 9.46274739032611 6.97795500280336
328 108 3 0 1.5865452278126 8.53274739032611 6.97795500280336
329 109 3 0 6.32365813639015 11.0486974489782 14.057562929811
330 109 5 0 7.28365813639015 11.0486974489782 14.057562929811
331 109 3 0 7.52365813639015 10.1186974489782 14.057562929811
332 110 3 0 14.2584035619814 5.35468538449146 9.55478435964324
333 110 5 0 15.2184035619814 5.35468538449146 9.55478435964324
334 110 3 0 15.4584035619814 4.42468538449146 9.55478435964324
335 111 3 0 12.4808764729835 14.3971166612487 8.12861746293493
336 111 5 0 13.4408764729835 14.3971166612487 8.12861746293493
337 111 3 0 13.6808764729835 13.4671166612487 8.12861746293493
338 112 3 0 11.7125729627162 3.81922939134762 1.6083250916563
339 112 5 0 12.6725729627162 3.81922939134762 1.6083250916563
340 112 3 0 12.9125729627162 2.88922939134762 1.6083250916563
341 113 3 0 1.44684147482738 7.1355447759293 12.7299213514198
342 113 5 0 2.40684147482738 7.1355447759293 12.7299213514198
343 113 3 0 2.64684147482738 6.2055447759293 12.7299213514198
344 114 3 0 1.03497292773798 15.0072043102141 9.74021330242977
345 114 5 0 1.99497292773798 15.0072043102141 9.74021330242977
346 114 3 0 2.23497292773798 14.0772043102141 9.74021330242977
347 115 3 0 13.1089653731044 3.06312581798062 9.12061925511807
348 115 5 0 14.0689653731044 3.06312581798062 9.12061925511807
349 115 3 0 14.3089653731044 2.13312581798062 9.12061925511807
350 116 3 0 3.48303203864023 3.04622344131581 8.31835919525474
351 116 5 0 4.44303203864023 3.04622344131581 8.31835919525474
352 116 3 0 4.68303203864023 2.11622344131581 8.31835919525474
353 117 3 0 2.97547736481763 14.0104596251063 14.5031183527317
354 117 5 0 3.93547736481763 14.0104596251063 14.5031183527317
355 117 3 0 4.17547736481763 13.0804596251063 14.5031183527317
356 118 3 0 4.94376426955685 3.82978607708588 0.373826776631176
357 118 5 0 5.90376426955685 3.82978607708588 0.373826776631176
358 118 3 0 6.14376426955685 2.89978607708588 0.373826776631176
359 119 3 0 1.86042167290114 1.58439598902129 5.1586413604673
360 119 5 0 2.82042167290114 1.58439598902129 5.1586413604673
361 119 3 0 3.06042167290114 0.654395989021286 5.1586413604673
362 120 3 0 7.48516133797355 14.6068672187999 6.16996673983522
363 120 5 0 8.44516133797355 14.6068672187999 6.16996673983522
364 120 3 0 8.68516133797355 13.6768672187999 6.16996673983522
365 121 3 0 5.33206069769338 11.0976000041142 3.27562643098645
366 121 5 0 6.29206069769338 11.0976000041142 3.27562643098645
367 121 3 0 6.53206069769338 10.1676000041142 3.27562643098645
368 122 3 0 9.99396358427592 7.01227221329696 5.42468198575079
369 122 5 0 10.9539635842759 7.01227221329696 5.42468198575079
370 122 3 0 11.1939635842759 6.08227221329696 5.42468198575079
371 123 3 0 9.80325974567793 12.3659933211189 12.5947428122163
372 123 5 0 10.7632597456779 12.3659933211189 12.5947428122163
373 123 3 0 11.0032597456779 11.4359933211189 12.5947428122163
374 124 3 0 3.84547539797612 5.26231103152037 14.740441404283
375 124 5 0 4.80547539797612 5.26231103152037 14.740441404283
376 124 3 0 5.04547539797612 4.33231103152037 14.740441404283
377 125 3 0 2.5017013486661 8.93755528534763 12.8741914930288
378 125 5 0 3.4617013486661 8.93755528534763 12.8741914930288
379 125 3 0 3.7017013486661 8.00755528534763 12.8741914930288
380 126 3 0 9.67878897252493 8.42585047631525 7.60896459105425
381 126 5 0 10.6387889725249 8.42585047631525 7.60896459105425
382 126 3 0 10.8787889725249 7.49585047631524 7.60896459105425
383 127 3 0 9.71401745846495 8.68353936978616 7.03198216622695
384 127 5 0 10.674017458465 8.68353936978616 7.03198216622695
385 127 3 0 10.914017458465 7.75353936978616 7.03198216622695
386 128 3 0 13.8657889170293 4.89546989015304 11.3617827789858
387 128 5 0 14.8257889170293 4.89546989015304 11.3617827789858
388 128 3 0 15.0657889170293 3.96546989015304 11.3617827789858
389 129 3 0 6.4776792498026 1.56922463950701 4.67389358673245
390 129 5 0 7.4376792498026 1.56922463950701 4.67389358673245
391 129 3 0 7.6776792498026 0.63922463950701 4.67389358673245
392 130 3 0 1.93386840328574 9.80050894705579 7.29028026689775
393 130 5 0 2.89386840328574 9.80050894705579 7.29028026689775
394 130 3 0 3.13386840328574 8.87050894705579 7.29028026689775
395 131 3 0 13.1624335753452 9.30729377822951 4.6697989187669
396 131 5 0 14.1224335753452 9.30729377822951 4.6697989187669
397 131 3 0 14.3624335753452 8.37729377822951 4.6697989187669
398 132 3 0 0.565096599021927 13.8589379568025 5.89929793146439
399 132 5 0 1.52509659902193 13.8589379568025 5.89929793146439
400 132 3 0 1.76509659902193 12.9289379568025 5.89929793146439
401 133 3 0 5.71469269154593 9.40463957417756 1.57707034377381
402 133 5 0 6.67469269154593 9.40463957417756 1.57707034377381
403 133 3 0 6.91469269154593 8.47463957417756 1.57707034377381
404 134 3 0 1.47970739912242 13.7177819960658 5.14919252484106
405 134 5 0 2.43970739912242 13.7177819960658 5.14919252484106
406 134 3 0 2.67970739912242 12.7877819960658 5.14919252484106
407 135 3 0 7.13171040915884 11.7935790474899 9.96236111735925
408 135 5 0 8.09171040915884 11.7935790474899 9.96236111735925
409 135 3 0 8.33171040915884 10.8635790474899 9.96236111735925
410 136 3 0 7.45340403562412 10.9838188816234 2.24134449963458
411 136 5 0 8.41340403562412 10.9838188816234 2.24134449963458
412 136 3 0 8.65340403562412 10.0538188816234 2.24134449963458
413 137 3 0 13.3252061465476 14.4255712632462 4.0054852317553
414 137 5 0 14.2852061465476 14.4255712632462 4.0054852317553
415 137 3 0 14.5252061465476 13.4955712632462 4.0054852317553
416 138 3 0 13.724927443983 14.0370070472732 12.295935532311
417 138 5 0 14.684927443983 14.0370070472732 12.295935532311
418 138 3 0 14.924927443983 13.1070070472732 12.295935532311
419 139 3 0 9.12589185914956 4.64389042620547 1.57258206862025
420 139 5 0 10.0858918591496 4.64389042620547 1.57258206862025
421 139 3 0 10.3258918591496 3.71389042620547 1.57258206862025
422 140 3 0 13.9492233835347 9.75188608555123 1.75326130120084
423 140 5 0 14.9092233835347 9.75188608555123 1.75326130120084
424 140 3 0 15.1492233835347 8.82188608555123 1.75326130120084
425 141 3 0 5.13374857764691 1.68199895223603 11.6637382283807
426 141 5 0 6.09374857764691 1.68199895223603 11.6637382283807
427 141 3 0 6.33374857764691 0.751998952236026 11.6637382283807
428 142 3 0 3.71371442612261 12.2358067116607 4.83881953870878
429 142 5 0 4.67371442612261 12.2358067116607 4.83881953870878
430 142 3 0 4.91371442612261 11.3058067116607 4.83881953870878
431 143 3 0 6.46634539050981 11.7864663705137 5.29915811726823
432 143 5 0 7.42634539050981 11.7864663705137 5.29915811726823
433 143 3 0 7.66634539050981 10.8564663705137 5.29915811726823
434 144 3 0 6.23522674941458 7.89171398309059 1.69397432939149
435 144 5 0 7.19522674941458 7.89171398309059 1.69397432939149
436 144 3 0 7.43522674941458 6.96171398309059 1.69397432939149
437 145 3 0 5.60758483872749 7.3395747090131 5.82549622049555
438 145 5 0 6.56758483872749 7.3395747090131 5.82549622049555
439 145 3 0 6.80758483872749 6.4095747090131 5.82549622049555
440 146 3 0 12.5921947129257 13.9685655075032 8.13829176127911
441 146 5 0 13.5521947129257 13.9685655075032 8.13829176127911
442 146 3 0 13.7921947129257 13.0385655075032 8.13829176127911
443 147 3 0 10.1441152095515 2.75096850627102 11.2094867276028
444 147 5 0 11.1041152095515 2.75096850627102 11.2094867276028
445 147 3 0 11.3441152095515 1.82096850627102 11.2094867276028
446 148 3 0 2.93588018903509 5.74854795163497 3.57548873056658
447 148 5 0 3.89588018903509 5.74854795163497 3.57548873056658
448 148 3 0 4.13588018903509 4.81854795163497 3.57548873056658
449 149 3 0 3.46823338346556 11.1453411173448 13.8729436055291
450 149 5 0 4.42823338346556 11.1453411173448 13.8729436055291
451 149 3 0 4.66823338346556 10.2153411173448 13.8729436055291
452 150 3 0 12.698260209728 7.45829903445207 14.046432247851
453 150 5 0 13.658260209728 7.45829903445207 14.046432247851
454 150 3 0 13.898260209728 6.52829903445207 14.046432247851
455 151 3 0 6.81803281229921 12.7430112454481 3.97747857612558
456 151 5 0 7.77803281229921 12.7430112454481 3.97747857612558
457 151 3 0 8.01803281229921 11.8130112454481 3.97747857612558
458 152 3 0 4.01657610593364 6.12099876901135 9.18065256904811
459 152 5 0 4.97657610593364 6.12099876901135 9.18065256904811
460 152 3 0 5.21657610593364 5.19099876901135 9.18065256904811
461 153 3 0 0.520464323200285 13.6342775581311 1.50116841075942
462 153 5 0 1.48046432320029 13.6342775581311 1.50116841075942
463 153 3 0 1.72046432320029 12.7042775581311 1.50116841075942
464 154 3 0 11.4483184057474 10.6905946581997 8.3491724927444
465 154 5 0 12.4083184057474 10.6905946581997 8.3491724927444
466 154 3 0 12.6483184057474 9.7605946581997 8.3491724927444
467 155 3 0 7.42330639201216 15.1911433801893 1.79695319733582
468 155 5 0 8.38330639201216 15.1911433801893 1.79695319733582
469 155 3 0 8.62330639201216 14.2611433801893 1.79695319733582
470 156 3 0 9.5718471058365 1.10730846453458 12.0317029359285
471 156 5 0 10.5318471058365 1.10730846453458 12.0317029359285
472 156 3 0 10.7718471058365 0.177308464534581 12.0317029359285
473 157 3 0 2.64847998434678 10.3885354408436 4.47006690781564
474 157 5 0 3.60847998434678 10.3885354408436 4.47006690781564
475 157 3 0 3.84847998434678 9.45853544084355 4.47006690781564
476 158 3 0 12.64983155692 0.933435036977753 13.8043347524945