LAMMPS (29 Sep 2021 - Update 1)
Reading data file ...
  triclinic box = (0.0000000 0.0000000 0.0000000) to (15.000000 15.000000 15.000000) with tilt (0.0000000 0.0000000 0.0000000)
  2 by 4 by 4 MPI processor grid
  reading atoms ...
  1507 atoms
  scanning bonds ...
  3 = max bonds/atom
  scanning angles ...
  6 = max angles/atom
  scanning dihedrals ...
  6 = max dihedrals/atom
  scanning impropers ...
  1 = max impropers/atom
  reading bonds ...
  1006 bonds
  reading angles ...
  509 angles
  reading dihedrals ...
  6 dihedrals
  reading impropers ...
  1 impropers
Finding 1-2 1-3 1-4 neighbors ...
  special bond factors lj:    0        0        1       
  special bond factors coul:  0        0        1       
     4 = max # of 1-2 neighbors
     3 = max # of 1-3 neighbors
     6 = max # of special neighbors
  special bonds CPU = 0.002 seconds
  read_data CPU = 0.017 seconds
WARNING: Using 'neigh_modify every 1 delay 0 check yes' setting during minimization (../min.cpp:188)
Neighbor list info ...
  update every 1 steps, delay 0 steps, check yes
  max neighbors/atom: 10000, page size: 100000
  master list distance cutoff = 13
  ghost atom cutoff = 13
  binsize = 6.5, bins = 3 3 3
  3 neighbor lists, perpetual/occasional/extra = 3 0 0
  (1) pair hbond/dreiding/lj, perpetual, skip from (3)
      attributes: full, newton on
      pair build: skip
      stencil: none
      bin: none
  (2) pair lj/cut, perpetual, half/full from (3)
      attributes: half, newton on
      pair build: halffull/newton
      stencil: none
      bin: none
  (3) neighbor class addition, perpetual
      attributes: full, newton on
      pair build: full/bin
      stencil: full/bin/3d
      bin: standard
Setting up cg style minimization ...
  Unit style    : real
  Current step  : 0
WARNING: Energy due to 1 extra global DOFs will be included in minimizer energies
Per MPI rank memory allocation (min/avg/max) = 13.14 | 13.51 | 14.07 Mbytes
Step Temp E_pair E_mol TotEng Press Volume 
       0            0 1.8403052e+16    203.49716 1.8403052e+16 1.4955474e+18         3375 
    5074            0   -990.16843    16.794377   -973.37405    58.975621    38762.799 
Loop time of 4.98218 on 32 procs for 5074 steps with 1507 atoms

100.0% CPU use with 32 MPI tasks x no OpenMP threads

Minimization stats:
  Stopping criterion = energy tolerance
  Energy initial, next-to-last, final = 
    1.84030523580481e+16  -972.765507438655   -972.85795996975
  Force two-norm initial, final = 3.0414496e+18 86.543118
  Force max component initial, final = 1.3993605e+18 43.578997
  Final line search alpha, max atom move = 1.0065861e-05 0.00043866013
  Iterations, force evaluations = 5074 5076

MPI task timing breakdown:
Section |  min time  |  avg time  |  max time  |%varavg| %total
---------------------------------------------------------------
Pair    | 1.1548     | 2.4975     | 4.2144     |  44.1 | 50.13
Bond    | 0.0059577  | 0.010363   | 0.019073   |   2.5 |  0.21
Neigh   | 0.095483   | 0.095801   | 0.096088   |   0.1 |  1.92
Comm    | 0.32907    | 2.0453     | 3.3865     |  48.7 | 41.05
Output  | 0          | 0          | 0          |   0.0 |  0.00
Modify  | 0          | 0          | 0          |   0.0 |  0.00
Other   |            | 0.3332     |            |       |  6.69

Nlocal:        47.0938 ave          74 max          26 min
Histogram: 3 3 3 6 3 6 3 3 0 2
Nghost:        1880.25 ave        1917 max        1835 min
Histogram: 1 4 2 4 2 2 2 8 5 2
Neighs:        4684.06 ave        8504 max        2085 min
Histogram: 3 3 4 7 4 5 2 1 2 1

Total # of neighbors = 149890
Ave neighs/atom = 99.462508
Ave special neighs/atom = 2.0106171
Neighbor list builds = 88
Dangerous builds = 0
1500 atoms in group WAT
7 atoms in group MOL
Neighbor list info ...
  update every 2 steps, delay 10 steps, check yes
  max neighbors/atom: 10000, page size: 100000
  master list distance cutoff = 13
  ghost atom cutoff = 13
  binsize = 6.5, bins = 6 6 6
  4 neighbor lists, perpetual/occasional/extra = 3 1 0
  (1) pair hbond/dreiding/lj, perpetual, skip from (4)
      attributes: full, newton on
      pair build: skip
      stencil: none
      bin: none
  (2) pair lj/cut, perpetual, half/full from (4)
      attributes: half, newton on
      pair build: halffull/newton
      stencil: none
      bin: none
  (3) compute group/group, occasional, copy from (2)
      attributes: half, newton on
      pair build: copy
      stencil: none
      bin: none
  (4) neighbor class addition, perpetual
      attributes: full, newton on
      pair build: full/bin
      stencil: full/bin/3d
      bin: standard
Setting up Verlet run ...
  Unit style    : real
  Current step  : 5074
  Time step     : 1
Per MPI rank memory allocation (min/avg/max) = 11.99 | 12.05 | 12.54 Mbytes
Step Temp E_pair E_mol TotEng Press Volume 
    5074          300   -990.16843    16.794377    373.35593    1647.1502    38762.799 
    5100     314.0846   -1018.8339     351.2303    742.35358    793.10857    38762.799 
    5200    295.45869   -1048.7524    154.55203    432.14321   -139.45352    38762.799 
    5300    294.63525   -1020.6129    147.80677    449.84093    454.02292    38762.799 
    5400    291.91572   -1051.5995    172.66557    431.50488    604.14923    38762.799 
    5500     298.7435   -1034.6734    173.70537    480.12135    1023.2225    38762.799 
    5600    298.42948   -1054.6514      191.659    476.68735    846.34307    38762.799 
    5700    304.78237   -1033.8641    166.57591    500.91035     1034.493    38762.799 
    5800    291.59766   -1049.0689     178.7689    438.71106    533.87638    38762.799 
    5900    297.30843   -1060.9503    181.29572    454.99265    495.57034    38762.799 
    6000     310.9004    -1053.341    166.93862    509.26054    314.53057    38762.799 
    6100    307.28119   -1030.1885    178.16333    527.39084    757.12876    38762.799 
    6200    292.52752   -1004.2642    198.50588    507.42696    525.60055    38762.799 
    6300    314.70289   -1061.5778    181.67232    532.82724    370.82993    38762.799 
    6400     295.5731   -1077.1603    195.38071    445.07758    684.59092    38762.799 
    6500    303.76469     -1046.02    188.45061    506.06068    415.43797    38762.799 
    6600    301.99918   -1065.8863    193.62249    483.44068    898.35766    38762.799 
    6700    294.57466   -1068.1876    190.21887    444.40638    713.03002    38762.799 
    6800    305.79079   -1041.6656    207.19541    538.25523    804.96859    38762.799 
    6900    314.32605   -1076.8627    199.69987    533.87824    534.02894    38762.799 
    7000    299.55638   -1062.8177     218.1945    500.11535    949.24585    38762.799 
    7100    302.24436   -1082.5763    199.32665    473.55546    308.22088    38762.799 
    7200    292.71968   -1047.4301    220.06129    486.67911    168.71624    38762.799 
    7300    290.39171   -1078.6879    205.28751    430.19706    128.62973    38762.799 
    7400    292.23818   -1051.6069    213.02167    473.30117    222.76491    38762.799 
    7500    310.54931   -1124.3171    206.74755    476.51733    297.86092    38762.799 
    7600    298.82273   -1096.4852    204.18819    449.14806    328.47233    38762.799 
    7700    303.54255   -1123.7832    216.87604    455.72564    604.04851    38762.799 
    7800    316.60903   -1088.4901    194.81479    527.61427    225.52358    38762.799 
    7900    309.30358   -1057.9673    211.36111    541.88846    206.67047    38762.799 
    8000    293.46278   -1079.4278    210.20193    448.15785   -113.03317    38762.799 
    8100    297.18719   -1097.4228    197.79814    434.47835    -164.4689    38762.799 
    8200    297.74745    -1123.084    224.43444    437.96852    266.39784    38762.799 
    8300    303.44972   -1103.2337    233.65573     492.6381    502.71287    38762.799 
    8400     297.7471   -1100.8996    208.25743    443.97435    499.90738    38762.799 
    8500    302.10886   -1067.2618    219.08226     508.0173    111.87749    38762.799 
    8600    300.54508   -1110.0967    245.89234    484.97251    522.30522    38762.799 
    8700    300.66857   -1091.8628     221.6421     479.5106    207.57695    38762.799 
    8800    291.18561   -1117.4262    230.21413    419.94919    311.13384    38762.799 
    8900    313.51472    -1134.695    237.60426    510.30814    392.59514    38762.799 
    9000    300.59738   -1132.7255    217.67964    434.36586    713.68665    38762.799 
    9100    299.03444   -1154.3375    229.64572    417.70366    614.13206    38762.799 
    9200    306.59214   -1158.4186    229.94797     447.8521    374.79174    38762.799 
    9300    308.57433    -1136.988    241.10498    489.33804   -19.406821    38762.799 
    9400    291.08839   -1145.8893    230.22525    391.06088    64.915972    38762.799 
    9500    307.88436    -1141.949    246.68169    486.85635    189.93546    38762.799 
    9600    287.79197   -1113.4793    224.07922    402.52685    464.55742    38762.799 
    9700    297.20635   -1115.9159    233.27816    451.55128    407.00981    38762.799 
    9800    290.92981   -1186.7652    232.31255    351.56039    181.56721    38762.799 
    9900    293.39591   -1135.5607    240.52402    422.04686    250.73902    38762.799 
   10000    295.50296   -1115.3014    235.48547    446.72638    318.73852    38762.799 
   10100    292.25701   -1114.8885    239.15314    436.23552    384.50808    38762.799 
   10200    305.33844   -1132.6953    248.24171    486.24117    141.85492    38762.799 
   10300    304.54231   -1150.1612    249.80166    466.76139    182.96073    38762.799 
   10400    303.41864   -1139.4591    249.62696    472.24442    120.87281    38762.799 
   10500    303.69059   -1139.0366    239.10284    463.36363   -42.325531    38762.799 
   10600     291.0571   -1104.7005    247.70106    449.58502    162.31359    38762.799 
   10700    302.53527   -1105.7515    273.91833     526.2779    629.37633    38762.799 
   10800    295.59303   -1155.4837     240.2236    411.68655      518.366    38762.799 
   10900    311.41566   -1137.1241    256.16271     517.0147    699.02477    38762.799 
   11000    304.88888   -1153.0626    258.48631    474.10039    502.39475    38762.799 
   11100    302.44568   -1161.6569    235.57177    431.62369    312.55457    38762.799 
   11200    307.44387   -1110.1927    266.83127    536.78482    548.37231    38762.799 
   11300    294.56761   -1174.0902    257.46042    405.71371   -48.160146    38762.799 
   11400    300.02132    -1118.461     260.4538    488.81848     278.0808    38762.799 
   11500    298.41192    -1113.346    263.02823    489.28312    173.16403    38762.799 
   11600    291.15561   -1101.3276    269.53388    475.23294    128.40917    38762.799 
   11700    297.99049   -1105.6082    273.50746    505.60839    285.69747    38762.799 
   11800    296.19415   -1124.7384    267.89277    472.79947    452.62223    38762.799 
   11900     288.0455   -1125.6663    259.07374    426.47251   -26.132681    38762.799 
   12000    299.29729   -1174.0712    268.27428    437.77848    342.06063    38762.799 
   12100    296.78106   -1099.8147    249.97728     482.4424    472.71748    38762.799 
   12200    297.00532   -1161.1737     270.4896    442.60245     455.6314    38762.799 
   12300    300.12489   -1153.3616    252.09201    446.02102    211.70922    38762.799 
   12400    307.79616   -1160.2786    253.61258    475.06167    47.326333    38762.799 
   12500    300.30237    -1151.254    254.80339    451.63676    30.459187    38762.799 
   12600    303.27038   -1140.0602    259.14171    480.49253    333.15188    38762.799 
   12700    296.08229   -1134.9076    261.33515    455.57052   -9.5338671    38762.799 
   12800    299.40165   -1174.2642    251.25004    421.02979    153.63425    38762.799 
   12900    299.10798   -1196.9639    246.14554    391.90727    156.05308    38762.799 
   13000    301.64061    -1142.554    278.25103    489.79191     398.5734    38762.799 
   13100     301.9462   -1163.4712    289.03337    481.02885    326.87128    38762.799 
   13200    290.67175   -1179.9444    240.49667    365.40684   -53.385265    38762.799 
   13300    298.26906   -1182.5602    275.43842    431.83786    120.81503    38762.799 
   13400    289.22042   -1165.2497    267.16028    400.24993    182.15121    38762.799 
   13500    303.07207   -1177.2162    253.53889    436.84353    97.741206    38762.799 
   13600    288.47221   -1178.9796    295.01752     411.0185    -207.7863    38762.799 
   13700    292.10745   -1128.2023    269.25996    452.35722    63.054665    38762.799 
   13800     304.7945   -1141.7479    282.03161    508.53667   -270.48742    38762.799 
   13900    295.32749   -1146.8265    278.57046    457.49859   -184.24914    38762.799 
   14000    299.19321   -1137.7105     274.0693    479.46699   -203.97464    38762.799 
   14100    302.28172   -1140.9813    263.08994    479.08153     100.0654    38762.799 
   14200    299.67926   -1141.4783    272.65378    476.46562    27.690255    38762.799 
   14300    297.23785   -1162.9222    275.95211    447.36029    130.41519    38762.799 
   14400    302.76836   -1187.3458     260.7535    432.56513   -266.63691    38762.799 
   14500    291.48308   -1194.3902    277.82643    391.93295   -167.39289    38762.799 
   14600     310.2135   -1202.1767    285.05792    475.46058    122.94625    38762.799 
   14700    295.94231    -1142.123    287.45521    473.84683   -396.18924    38762.799 
   14800    297.62111   -1178.8559    289.83089     447.0259   -290.42809    38762.799 
   14900    301.60505   -1191.3148    265.26189    427.88231   -82.586351    38762.799 
   15000    304.78878   -1198.8233    268.75487    438.15889   -140.20639    38762.799 
   15100    288.68977   -1204.6362    272.45441    363.77541   -297.35447    38762.799 
   15200    290.88824   -1217.2054    298.77607    387.39702   -386.66858    38762.799 
   15300    291.83266   -1190.9769    285.43968    404.52873   -89.702913    38762.799 
   15400     297.9392   -1211.2987    283.94811    410.12825   -206.35839    38762.799 
   15500    292.86486   -1188.9851    277.09838    402.81294    295.01222    38762.799 
   15600    308.75723   -1154.5305    274.46139      505.973   -74.351717    38762.799 
   15700    306.72639   -1160.3756    286.34543    502.89523    275.98836    38762.799 
   15800    291.87898   -1176.6585    277.10797    410.72343   -145.33031    38762.799 
   15900     296.2219   -1216.7624    278.04878    391.05608    423.45515    38762.799 
   16000    299.26658   -1138.3147    312.49539    517.61828   -51.491788    38762.799 
   16100    296.10891    -1148.042    286.38612    467.60656  -0.99100075    38762.799 
   16200    301.83356   -1204.5089    300.59615    451.04831     123.6096    38762.799 
   16300     309.1531   -1240.1866    274.98435    422.61692    146.92348    38762.799 
   16400    303.00364   -1192.0294    293.76393    461.94809    181.49914    38762.799 
   16500    295.44377   -1135.3842    290.12553    481.01787   -163.55704    38762.799 
   16600    309.59813   -1208.6857    293.58042     474.7117   -24.397055    38762.799 
   16700     288.6493   -1216.6938    303.70503    382.78678   -49.917145    38762.799 
   16800    308.91756   -1211.0395    287.04827    462.77055     65.98695    38762.799 
   16900    307.43498   -1200.0044    294.87345    474.97535    453.71037    38762.799 
   17000    295.64361   -1204.5547    283.16069    405.77973    232.35851    38762.799 
   17100    302.31244   -1168.0426    305.16573    494.23393    242.28243    38762.799 
   17200    299.16219   -1177.4144    302.11837    467.67291    539.18245    38762.799 
   17300    292.62054   -1210.9274    324.79847    427.47387    312.55953    38762.799 
   17400    309.02008   -1162.7394    302.64992    527.13251    222.99677    38762.799 
   17500    305.16075   -1159.2831    314.75706    525.37105    117.52829    38762.799 
   17600    312.85154   -1193.0654    292.01589     503.3723     524.2959    38762.799 
   17700    297.63692   -1167.2013    303.44489    472.36549    511.58172    38762.799 
   17800    300.55163    -1188.971    301.66071    461.89601    381.38693    38762.799 
   17900      299.795   -1179.7081    300.86465    466.96629    454.32791    38762.799 
   18000      299.588     -1208.11    314.12303    450.89346    737.75875    38762.799 
   18100    294.55887   -1172.5116    313.21701     463.0096    584.78899    38762.799 
   18200    300.19486   -1168.7124    309.54677    488.43911    173.76978    38762.799 
   18300    296.01713   -1205.4702    309.45026    432.83053    288.24295    38762.799 
   18400    300.11036   -1220.4215    286.13072    412.93464    144.49214    38762.799 
   18500    298.24608    -1203.767    332.34559      467.435     633.5018    38762.799 
   18600    301.84703   -1225.6065    286.76831    416.18331    89.608329    38762.799 
   18700    301.29014   -1211.4253    296.14508    437.24135    263.75443    38762.799 
   18800    294.13606   -1189.0053    323.20094    454.60184     122.0186    38762.799 
   18900    312.41057   -1178.9124    298.49855    522.02837    315.72873    38762.799 
   19000    298.53694   -1128.4443    309.12566    520.84348   -149.03704    38762.799 
   19100    289.30932   -1129.6182    333.80798    502.92826   -535.69631    38762.799 
   19200    305.17206   -1156.6059    311.21017    524.55214   -243.08553    38762.799 
   19300    305.99162   -1157.8875    332.52283    548.26234    387.14098    38762.799 
   19400     291.7226   -1187.0631    304.93649    427.44529   -58.451568    38762.799 
   19500    297.00519   -1170.7042    309.90054    472.48227   -21.016352    38762.799 
   19600    300.47235   -1162.7238    311.36795    497.49455   -32.459011    38762.799 
   19700    314.16643   -1147.3384    311.81997    574.80601    87.785003    38762.799 
   19800    290.04874   -1200.9353    325.41149    426.53396    69.228848    38762.799 
   19900    292.35122   -1186.0271    322.07601    448.44279     140.0009    38762.799 
   20000    298.93408   -1162.8694    332.88148    511.95704    70.242975    38762.799 
   20100    297.76959   -1208.5526    321.04641    449.21121    409.08898    38762.799 
   20200    308.59866   -1158.9122    334.35705     560.7751      228.676    38762.799 
   20300    299.85912   -1140.5998    323.10045    528.59817    138.53591    38762.799 
   20400    293.97803   -1167.1099    361.46295    514.04985   -287.06641    38762.799 
   20500     292.1488   -1204.2812    318.52013    425.72404   -421.25635    38762.799 
   20600     294.6081   -1165.4689    331.87217    488.92847   -88.236161    38762.799 
   20700    308.25698    -1164.236    326.65708    546.21743   -230.83018    38762.799 
   20800    300.87893   -1182.0459    323.67491    492.30462   -417.98716    38762.799 
   20900    296.94449   -1183.5849     338.6552    488.08379   -219.29823    38762.799 
   21000    303.20601   -1204.9408    312.61355    468.79484   -443.35615    38762.799 
   21100    302.14847   -1232.8116    324.04084    447.60397   -725.92131    38762.799 
   21200    295.42332   -1223.5091    313.64164    416.31737   -525.67655    38762.799 
   21300    292.75154   -1228.0056    325.90331    412.08866   -578.86056    38762.799 
   21400    307.29444   -1221.8965     328.5164    486.09539   -494.13589    38762.799 
   21500    293.64827   -1252.1121    311.33952    377.44387   -423.86448    38762.799 
   21600    291.24876   -1248.7553    332.08202     390.7715   -7.1508879    38762.799 
   21700     293.3816   -1240.8605     317.3969     393.5557    325.72824    38762.799 
   21800    306.36435   -1225.1347    316.11496    466.28042    680.15763    38762.799 
   21900    290.56203   -1270.6182     339.7782    373.52196    644.81295    38762.799 
   22000    298.46306   -1237.5941    308.09567    410.33204     501.7057    38762.799 
   22100    304.13054   -1210.7499    327.06615    481.58859    137.87761    38762.799 
   22200    295.44186   -1245.0811    311.26253    392.44943    493.75052    38762.799 
   22300    307.85219   -1240.4526    325.19944    466.72605    130.01213    38762.799 
   22400    289.30251   -1258.3664    314.94742    355.28887   -205.95141    38762.799 
   22500    309.09983   -1180.4652    316.87625    523.99104    342.32048    38762.799 
   22600      304.485    -1188.268    328.41781    507.01341   -29.704213    38762.799 
   22700    299.07258   -1212.3295    323.02254    453.25978   -254.30826    38762.799 
   22800    294.89386   -1179.7519    315.25689    459.31302    152.79864    38762.799 
   22900    292.87688   -1170.2599    330.04019    474.53392    55.397519    38762.799 
   23000    292.11449   -1153.7774    327.50581    485.05951    33.666689    38762.799 
   23100    292.39666   -1149.6075    328.67835    491.66862    278.06306    38762.799 
   23200    306.97084   -1201.9022      328.229    504.34956    362.80456    38762.799 
   23300    303.68037   -1211.0233    342.06629    494.29448   -124.62139    38762.799 
   23400    299.67104   -1203.1728    339.07562    481.15605   -272.48991    38762.799 
   23500    291.06607   -1183.9137    330.40328    453.11423    128.59344    38762.799 
   23600    302.16622    -1209.398    328.62259    475.67901    184.69626    38762.799 
   23700    294.48817   -1235.0006    339.35206    426.33832    22.150651    38762.799 
   23800    298.21759   -1250.4814      322.715    410.96213    127.51305    38762.799 
   23900    292.65101   -1223.2614    342.55249    433.03073    291.14196    38762.799 
   24000     307.8162    -1230.035    317.23959    469.02226    293.06988    38762.799 
   24100    296.93146   -1301.8317    320.01036     351.1337    -56.79026    38762.799 
   24200    305.08884   -1263.8761    335.88463    441.58285   -59.510591    38762.799 
   24300    300.62612   -1224.0074    326.31744     451.8507   -86.803002    38762.799 
   24400    309.08903   -1234.9085     330.1609    482.78398    47.016622    38762.799 
   24500    310.85472   -1227.2408    331.30625    499.52332    276.18298    38762.799 
   24600    297.79283   -1258.9744     318.6557     396.5031      75.1146    38762.799 
   24700    300.23912   -1268.0073    340.14551    419.94166    491.20497    38762.799 
   24800    302.46519   -1286.4885    326.97478    398.28271    580.47745    38762.799 
   24900    301.50482   -1255.1016     334.8024    433.18602    481.52933    38762.799 
   25000    299.52404   -1253.3089    333.23045     424.5149   -51.746236    38762.799 
   25100    302.92771   -1235.2924    325.50513    450.08547     88.21859    38762.799 
   25200    281.69546   -1238.9551    344.73957     370.3436   -682.66241    38762.799 
   25300    309.93631   -1233.2549    335.21221    493.29234    215.16306    38762.799 
   25400    300.22284   -1233.3756     326.5201    440.87488    276.12003    38762.799 
   25500    294.21498   -1236.7928    352.32612    436.29377    243.23985    38762.799 
   25600    286.87244   -1225.9103    340.97905     402.8678    334.42756    38762.799 
   25700    296.50496    -1230.171    350.00826    450.87762    121.93173    38762.799 
   25800      304.191    -1247.077    335.36101    453.82784    136.87798    38762.799 
   25900    297.02498   -1204.5402    348.49205    477.32663   -18.993612    38762.799 
   26000    300.93746    -1251.995    350.02507     448.9684    286.65067    38762.799 
   26100    310.45201   -1268.1068    353.08474    478.62799    580.07191    38762.799 
   26200    299.49962    -1259.815    350.05001    434.71876    202.76397    38762.799 
   26300    298.62657    -1226.638     337.8638     451.7903    539.88838    38762.799 
   26400    297.52067   -1213.2553    340.91296     463.2577    266.58493    38762.799 
   26500    297.23721   -1275.2261    356.12777    415.22923    452.84136    38762.799 
   26600     307.8205   -1248.8694    340.36689    473.33449    536.71631    38762.799 
   26700    307.40317   -1227.9193    344.42276    496.46695    309.54922    38762.799 
   26800    298.32563   -1255.1798    352.01375    436.04754   -63.767054    38762.799 
   26900    303.13947   -1258.2077    322.99223    425.60788    32.151792    38762.799 
   27000    294.34773   -1222.6124    359.40572     458.1497    277.89191    38762.799 
   27100    298.04464   -1253.5036    333.41188    417.86044    -11.56133    38762.799 
   27200    299.37647   -1230.8326    323.16289    436.26116    1.8333983    38762.799 
   27300    297.50971   -1225.9547    355.49658    465.09272   -97.427409    38762.799 
   27400    290.25135   -1212.4496    354.21815    444.73589    -235.7819    38762.799 
   27500    294.96844   -1208.5428    365.93498    481.53498   -96.572985    38762.799 
   27600    302.04162    -1261.402    353.38344    447.87643     143.2345    38762.799 
   27700    294.20873   -1261.9275    343.30644    402.11132    82.344937    38762.799 
   27800     297.8129   -1260.6044    354.26149    430.56893    583.71453    38762.799 
   27900    299.63765   -1265.5831    358.36458     437.8848    92.138635    38762.799 
   28000    309.87819   -1282.1393    356.83413    465.76897     260.1157    38762.799 
   28100    308.41434   -1273.9673    377.03154    487.56706    513.69639    38762.799 
   28200    290.24414   -1284.0443    355.61801    374.50872    452.07042    38762.799 
   28300    294.70234   -1239.8025    350.65105    433.79684    91.248794    38762.799 
   28400    303.02713   -1252.2317    372.47719    480.56457    713.99762    38762.799 
   28500    294.57438   -1251.9108    368.49421    438.95721    31.738213    38762.799 
   28600    294.65569   -1196.4834    364.20463    490.46006    203.45252    38762.799 
   28700    292.82049   -1219.1168    346.27623    441.65987   -67.648394    38762.799 
   28800    296.88862   -1222.8729    380.62383    490.51366    405.23763    38762.799 
   28900    290.38576   -1284.1923    358.94451    378.32291    -250.2517    38762.799 
   29000    293.98114   -1264.7322    355.82884    410.80737    550.05372    38762.799 
   29100    306.29274   -1280.5835    355.27495    449.67021    24.098168    38762.799 
   29200    303.12693    -1255.848    357.50957    462.42862   -177.71453    38762.799 
   29300    311.48233   -1275.6648    352.69651    475.30706    60.613712    38762.799 
   29400    304.81638   -1230.8218    371.04856    508.57793   -39.773722    38762.799 
   29500    305.35799    -1254.616     362.7802    478.94675    40.838236    38762.799 
   29600    304.96788   -1220.4364    346.82436    495.41929    26.097029    38762.799 
   29700    298.99811   -1266.2817    357.78471    433.73539   -161.94892    38762.799 
   29800    307.60582    -1268.343    357.55504    470.08529   -424.55276    38762.799 
   29900     286.8385   -1267.4782    397.68099    417.84949   -519.48371    38762.799 
   30000    302.29385    -1288.489     366.5551    435.09338    375.33473    38762.799 
   30100    301.72991    -1285.166    372.22849    441.55824    367.97143    38762.799 
   30200    296.96942   -1320.3078    390.35813    403.17571    323.96993    38762.799 
   30300    299.12139   -1320.8934    369.01167    390.90406    696.17403    38762.799 
   30400    303.94297   -1289.5209    369.50465    444.41406     691.7638    38762.799 
   30500    308.64157   -1271.0419    357.26663    471.74757     123.4921    38762.799 
   30600    284.46245   -1281.0433    384.60768    380.54479    301.77502    38762.799 
   30700      302.729   -1247.3559     369.2837    480.90852    150.85779    38762.799 
   30800      299.741   -1225.8928    368.74493    488.41939    476.57437    38762.799 
   30900    302.58755   -1247.0967    379.05511    490.30412     223.5194    38762.799 
   31000    291.58712   -1222.0275    391.63559    478.57178    632.77737    38762.799 
   31100    301.66061   -1228.2754     360.7257    486.63487     409.3954    38762.799 
   31200    308.74128   -1221.2286    379.71053     544.4524    1112.3849    38762.799 
   31300    301.25139   -1206.1069    386.35487    532.59551    1264.2246    38762.799 
   31400    305.24781   -1239.2292    371.14327    502.20198     1132.198    38762.799 
   31500     298.2012   -1239.1383    363.95082    463.46754    1035.7739    38762.799 
   31600    303.98449   -1241.8571    351.35392    474.11355    527.67087    38762.799 
   31700    295.76494   -1257.2134     387.5651    458.07003    525.30733    38762.799 
   31800    315.15587   -1281.9461    368.74888      501.569    559.06556    38762.799 
   31900    292.20196   -1277.4544     333.0775    367.34689     306.8206    38762.799 
   32000    292.50243   -1326.3617    369.57881    356.28974    204.29503    38762.799 
   32100    294.84715   -1297.3103    349.07954    375.36754    725.92408    38762.799 
   32200    296.56378   -1264.6625    391.82394    458.46592     224.8844    38762.799 
   32300    303.51066   -1250.2371    383.02021    495.27276    46.229736    38762.799 
   32400    297.66393   -1295.8641    376.20691    416.58593    151.82055    38762.799 
   32500    311.32173   -1312.5885     380.4159    465.38172    681.32927    38762.799 
   32600    304.41197   -1268.5865    386.55544    484.50469    1022.4768    38762.799 
   32700    303.68889   -1269.4932    383.30218    477.09873     540.4403    38762.799 
   32800    298.25224   -1317.3894    393.12712    414.62178    678.95576    38762.799 
   32900    296.22984    -1301.897    377.62449    405.53285    288.75702    38762.799 
   33000    300.95179   -1280.4168    380.86099    451.44689    277.21355    38762.799 
   33100    295.75604   -1277.2989    377.50806    427.88763    350.69029    38762.799 
   33200    298.37831   -1261.7623    391.90803    469.59581    208.09607    38762.799 
   33300    296.86632    -1235.251    381.67778    479.08939    307.12733    38762.799 
   33400      303.713   -1275.8506    379.44802    466.99539    440.13456    38762.799 
   33500    302.34323   -1305.3182     362.9354    414.86613    481.09558    38762.799 
   33600    295.24365   -1301.0139    385.21706    409.58143    347.65718    38762.799 
   33700    311.51106   -1300.3622    389.32799    487.37007    575.34386    38762.799 
   33800    299.16373   -1301.7811    366.41809    407.61285     401.7828    38762.799 
   33900    297.07565   -1268.1918    386.60185     452.0123    81.954996    38762.799 
   34000    303.78858   -1267.5155    378.15087     474.3727    252.61228    38762.799 
   34100    305.79328    -1298.623    383.01346    457.12705   -95.421344    38762.799 
   34200    293.81822   -1311.5294    385.05366    392.50359   -292.09085    38762.799 
   34300    297.71404   -1334.7931    371.56107    373.23606   -100.75836    38762.799 
   34400    290.61659   -1370.1853    378.89472    313.31632    54.883834    38762.799 
   34500    301.57493   -1318.1805    381.66743    417.28694   -60.258818    38762.799 
   34600    298.57822   -1275.7961    381.48001    446.03142   -92.797043    38762.799 
   34700    300.04024   -1336.8953    381.71229    391.72761    -26.85379    38762.799 
   34800    306.35995   -1267.4053    399.64893    507.52404   -277.83116    38762.799 
   34900    300.10727   -1278.9378    392.09429    460.36799   -110.55504    38762.799 
   35000    294.52388    -1292.839    385.15367    414.46175    384.28327    38762.799 
   35100    310.68571   -1249.4042    377.33718    522.63221    123.86881    38762.799 
   35200    300.94053   -1274.5536    385.06994    461.46845    748.78648    38762.799 
   35300    291.23996   -1297.1405    400.19123    410.45598   -19.370087    38762.799 
   35400    292.46548   -1314.8417      365.093    363.15806   -31.520548    38762.799 
   35500    302.30816   -1291.4503    403.32259    468.96381    262.80823    38762.799 
   35600    288.92992   -1276.4784    367.06137    387.61831    -326.6002    38762.799 
   35700      295.827     -1255.69    373.45484    445.76178    66.688767    38762.799 
   35800    296.78425   -1280.1068    396.39122     448.5786   -262.94187    38762.799 
   35900    287.33304   -1296.3759    393.63546    387.12629   -418.15438    38762.799 
   36000    305.46299   -1292.6119    396.91314    475.55518   -404.99894    38762.799 
   36100    309.76133    -1309.497    391.14801    472.20058    409.36118    38762.799 
   36200    300.07296   -1303.3419    410.61165    454.32721    79.150717    38762.799 
   36300    286.71192   -1312.7462    386.91966    361.25186   -34.045468    38762.799 
   36400    292.74311   -1323.1402    397.51154     388.5244   -95.383397    38762.799 
   36500    298.48561   -1299.3539    385.07301    425.65083   -32.986064    38762.799 
   36600    295.97552     -1291.46    383.56042    420.76411    151.41439    38762.799 
   36700    301.49477   -1333.6525    392.30752    412.09518   -3.8086364    38762.799 
   36800    292.27387   -1333.4571    381.27949    359.86903    75.795877    38762.799 
   36900    303.66422   -1299.9733    384.76251    447.96819   -256.50391    38762.799 
   37000    292.36354   -1318.2787    394.08683    388.25725    295.06586    38762.799 
   37100    286.00188   -1356.5464    403.47427    330.81894    552.83716    38762.799 
   37200    302.00687   -1346.4027    405.27566    414.61196    203.98703    38762.799 
   37300    292.59493   -1334.5791    398.71959    377.62835    588.68754    38762.799 
   37400     298.3392   -1280.2491    396.75047    455.77591    785.77214    38762.799 
   37500    296.11026   -1276.9158    398.14403    450.49682    522.40016    38762.799 
   37600    299.36889   -1274.3743    405.22997    474.75253    854.31154    38762.799 
   37700     306.4872    -1286.861    415.82742    504.81813    556.34033    38762.799 
   37800    299.96664   -1372.3846    392.91253    367.10817     310.7206    38762.799 
   37900    297.78404   -1348.7753    398.90275    386.90974    457.64917    38762.799 
   38000    300.55124    -1326.892    369.11553    391.42806    551.04378    38762.799 
   38100    296.14141   -1315.0045    376.69209    391.09595   -16.021645    38762.799 
   38200     287.7062   -1349.5818    393.13689    335.09699    467.55908    38762.799 
   38300     300.5123   -1341.7124    385.22862    392.54601    498.21575    38762.799 
   38400     298.7667   -1334.9539    381.45264    387.69232    45.033961    38762.799 
   38500    304.00721   -1327.3036    386.33394    423.74907    109.46173    38762.799 
   38600    300.95448   -1300.3169    391.32572    442.02359   -28.709592    38762.799 
   38700    297.00215   -1329.5634    389.27316    392.98207     140.1279    38762.799 
   38800    297.25316   -1320.4834     406.7903    420.70609    52.565018    38762.799 
   38900    289.20171   -1370.1563    375.08449    303.18359    15.648522    38762.799 
   39000    308.10776   -1325.6589    384.86671    442.33436    251.76018    38762.799 
   39100    304.00088   -1376.2262    396.27544    384.73952    211.96945    38762.799 
   39200    301.83608   -1344.4758    397.25303    407.74953    50.088641    38762.799 
   39300    294.61867   -1338.5819    401.85929       385.85   -123.88298    38762.799 
   39400    294.85695   -1321.7159     375.5251    377.45149   -52.416406    38762.799 
   39500    303.40612   -1340.2949    380.15897    401.88445   -119.11848    38762.799 
   39600    291.32821   -1312.0603    377.07456    372.81566    35.709483    38762.799 
   39700    303.23072   -1334.9065      391.712    418.03848    423.00975    38762.799 
   39800    301.01337   -1325.5456    394.21391    419.94746    631.06332    38762.799 
   39900    301.16817   -1294.9108     390.1666    447.22977    479.06041    38762.799 
   40000    300.85695   -1326.1729    378.41967    402.82367    619.83164    38762.799 
   40100    297.57724   -1352.8214    381.27106    364.30358    139.81688    38762.799 
   40200    308.31331   -1305.3359    388.71092    467.42429   -70.741045    38762.799 
   40300    289.06082   -1329.3373    399.40667    367.69226    326.42177    38762.799 
   40400    309.37128   -1356.2997    394.15341    426.65227    160.16835    38762.799 
   40500    298.53158     -1337.68    386.39773    388.85579     95.66298    38762.799 
   40600    297.75074   -1340.2194    377.80829     374.2217    51.750322    38762.799 
   40700    293.21212   -1360.5831    364.99812    320.67353    12.279612    38762.799 
   40800    297.07689   -1390.9822    371.01936      313.645     358.4182    38762.799 
   40900    293.10492   -1362.6363    397.79591    350.93687    242.37675    38762.799 
   41000    301.07434   -1324.7372    380.04696    406.86255     -181.956    38762.799 
   41100    302.84781   -1335.4141    386.14064    410.24064   -291.48055    38762.799 
   41200    308.57917    -1381.722    380.08397    383.60464    -282.7061    38762.799 
   41300    301.02459    -1352.123     388.8067    388.01311   -218.78582    38762.799 
   41400    290.88597   -1420.2286    385.90763    271.49523   -522.85939    38762.799 
   41500    306.67737   -1378.3837    378.11472    376.43634    160.75821    38762.799 
   41600    299.65618   -1396.8544     387.2877    335.61981   -357.21567    38762.799 
   41700    293.31639   -1367.2617    395.28423    344.74913     135.5969    38762.799 
   41800    309.50548   -1359.6321    393.82408    423.59294    421.37668    38762.799 
   41900    299.07374   -1322.9413     410.7985    430.42913   -93.289823    38762.799 
   42000    294.71686   -1403.7477    399.62368    318.88937     -574.496    38762.799 
   42100    300.36169   -1363.6751    385.63129    370.30985   -91.761054    38762.799 
   42200    297.04644   -1371.4426    392.56304    354.59165   -426.07939    38762.799 
   42300    299.65918   -1376.0615    407.43523    376.57372    666.79838    38762.799 
   42400    305.26792   -1350.1115    402.12307     422.3898    318.67553    38762.799 
   42500    294.79285   -1357.1987    394.14713    360.30298    141.10799    38762.799 
   42600    310.37287   -1311.9736    386.66626    467.98753    280.82477    38762.799 
   42700    305.21876   -1342.6237    385.55114    413.08496   -67.097739    38762.799 
   42800    292.69852   -1362.0514    393.15237    345.05387   -137.54961    38762.799 
   42900    306.51388   -1395.6274    383.73919     364.0832    1.6190951    38762.799 
   43000    299.06427   -1375.2901    413.71834    380.95764    433.93223    38762.799 
   43100    307.17566   -1348.2563    413.85742    444.54334    16.422486    38762.799 
   43200    311.98915    -1402.456    392.81459     390.9091    251.63196    38762.799 
   43300    304.15687   -1417.9527    394.08409    341.52202   -33.881462    38762.799 
   43400    291.48344   -1350.3224     395.4723    353.64821   -169.85169    38762.799 
   43500     291.2135   -1356.6004    391.79469    342.48076   -569.78863    38762.799 
   43600    291.82529   -1380.9592    400.79081    329.86452   -15.962778    38762.799 
   43700    298.83082   -1419.7128    374.88488    296.65347    -396.7921    38762.799 
   43800    305.71098   -1410.8558    372.97884    334.49017    237.96793    38762.799 
   43900    293.23956   -1354.2732    397.91758    360.02606   -423.78325    38762.799 
   44000    298.70077   -1355.5335    386.65753    372.02164   -195.82237    38762.799 
   44100     310.9096   -1339.6855    389.16061    445.17935   -132.12763    38762.799 
   44200    297.35412   -1356.8944     376.3539    354.31183    389.66019    38762.799 
   44300    305.22802   -1371.7862    386.49074    384.90356   -193.38521    38762.799 
   44400    301.50935   -1390.4265    404.86443     367.9435    374.25217    38762.799 
   44500    301.83155   -1383.1309     374.8254    346.64645   -363.09251    38762.799 
   44600    290.84389   -1389.6019     388.6293    304.65466    323.05705    38762.799 
   44700    306.51572   -1364.4127    409.28704    420.85406    883.94841    38762.799 
   44800    302.78923   -1390.4614    399.29141    368.08108    742.38664    38762.799 
   44900     293.2262   -1402.4636    392.11595    305.97408    510.27217    38762.799 
   45000    312.93059    -1381.951    377.67009    400.49576    698.47267    38762.799 
   45100    296.48305   -1420.0598    374.26319    285.14547    295.46614    38762.799 
   45200    304.91772   -1389.9634     381.1207    359.96341    108.83176    38762.799 
   45300    301.62106   -1391.5352    389.56406    352.03591    169.16383    38762.799 
   45400    296.59071   -1355.9446    386.24557    361.72635   -1.3160648    38762.799 
   45500    298.63644   -1389.0637    417.79082    369.33593   -217.84339    38762.799 
   45600    302.64325   -1349.7981    377.68382    386.48153   -325.57444    38762.799 
   45700    299.03206   -1331.3897    393.87933    404.87445    127.40748    38762.799 
   45800    311.46168    -1331.797       413.44    479.82561    611.49952    38762.799 
   45900    297.15007   -1362.7401    400.95336     372.1496    467.09188    38762.799 
   46000    300.07633   -1352.2476    397.19507    392.02008    424.76117    38762.799 
   46100    301.42071   -1336.6336    413.47391      429.948    492.65408    38762.799 
   46200    305.65329   -1315.2257    403.28406    460.16649    385.54134    38762.799 
   46300    299.76022   -1330.7843    401.61342     416.4827    694.24271    38762.799 
   46400     293.6476    -1349.772    401.92143    370.36288    774.41427    38762.799 
   46500    297.72921   -1301.8623    405.27849    439.95236    975.01723    38762.799 
   46600    304.87866    -1309.566    397.73969    456.80441     119.7453    38762.799 
   46700    304.80924   -1304.2435    403.77921    467.85484    644.60991    38762.799 
   46800     296.0241    -1332.829    408.93767    404.99046    16.925596    38762.799 
   46900     310.4736   -1354.1975    390.41491    429.96443    941.66635    38762.799 
   47000    303.19122   -1340.2713    397.36907    418.15341    388.49147    38762.799 
   47100    298.06254   -1326.0717    409.18961    421.15049    592.11028    38762.799 
   47200    298.41783   -1344.3821    417.51151    412.75691    83.640845    38762.799 
   47300    302.27144   -1355.6291    439.32097    440.61858    35.674701    38762.799 
   47400    302.04039   -1358.7758    403.84051    400.95426    272.65865    38762.799 
   47500    310.98702   -1364.8501     427.0037    458.20539    387.62229    38762.799 
   47600    289.72521   -1383.1719    406.49138    323.92491   -130.54953    38762.799 
   47700    298.97445   -1358.1724    395.01398    378.96772   -346.55356    38762.799 
   47800    292.19032   -1385.3675    387.64182    313.94592   -190.07057    38762.799 
   47900    295.91635   -1387.7832    408.60181    349.21667   -289.69828    38762.799 
   48000    292.44567   -1405.3119    387.81957    295.32547   -402.83269    38762.799 
   48100    305.31889   -1378.8493    392.74986    384.50758   -278.31009    38762.799 
   48200    292.07303    -1381.983    388.23613    317.39816    -277.6061    38762.799 
   48300    297.00693   -1391.5302      401.336    343.09958    681.63039    38762.799 
   48400    305.65784   -1364.1982    418.00835    425.93876    665.56985    38762.799 
   48500     299.6106   -1383.8396    397.33056    358.47295    794.20529    38762.799 
   48600    300.63299   -1357.3419    391.37497    383.60457    381.37592    38762.799 
   48700    298.24765   -1363.2749    380.66256    356.25117    332.60403    38762.799 
   48800     295.2563   -1434.3073    409.38389    300.51159    264.15178    38762.799 
   48900    302.73704   -1406.5772    386.99226    339.43185    244.59556    38762.799 
   49000    297.15746   -1390.7451    412.79639    356.02079    312.29707    38762.799 
   49100    301.04517   -1425.2259    401.41351    327.60945    707.78384    38762.799 
   49200    304.97545   -1352.0091    428.65881    445.71499    887.08532    38762.799 
   49300    290.29823   -1377.6899    392.22972    317.71758    569.25869    38762.799 
   49400    301.06922   -1349.4843    401.03613    403.08167    147.69656    38762.799 
   49500    304.34079    -1384.285    397.71457    379.64583    19.990521    38762.799 
   49600    295.31559   -1361.0698    403.49405    368.12548    255.48299    38762.799 
   49700    302.81498   -1404.0585    415.11278    370.42101     319.9769    38762.799 
   49800    298.47305   -1422.7211    394.84073    311.99499    338.25617    38762.799 
   49900    298.92277   -1387.2339    425.58237    380.24267    158.76536    38762.799 
   50000    299.31245   -1359.7993     407.8746    391.71879   -226.03765    38762.799 
   50100    290.52512   -1348.6339    413.50685    369.06921   -470.86379    38762.799 
   50200    296.95829   -1351.9204    411.50275    392.65775   -232.85918    38762.799 
   50300    299.06531   -1373.4197    426.55247    395.66689    10.416279    38762.799 
   50400    303.05338   -1338.9135     435.6775    457.20089     116.4215    38762.799 
   50500    297.34787   -1366.7013    433.75056     401.8736    102.90003    38762.799 
   50600    304.42334   -1350.4839    403.91578    420.01865   -64.528313    38762.799 
   50700    292.82668   -1325.0609    418.49925    407.96656   -139.44781    38762.799 
   50800    301.29828   -1385.0947    421.57888    389.04232    132.27784    38762.799 
   50900    301.62905   -1339.3046    406.83755    421.57588    286.87389    38762.799 
   51000    289.30664   -1324.5379    433.07607    407.26459   -62.194072    38762.799 
   51100    297.72712   -1328.2836    419.63319    427.87642   -243.50159    38762.799 
   51200    302.88259    -1319.618    405.68191    445.73417   -376.16072    38762.799 
   51300    301.38923   -1324.3135    435.29393    463.94679    -425.9348    38762.799 
   51400    294.04299   -1361.0614    390.11513    349.04209   -340.83402    38762.799 
   51500     285.2497   -1362.9159    418.29017    335.88869   -78.683703    38762.799 
   51600    303.60375   -1349.3386    432.42869    445.99763    62.840374    38762.799 
   51700    297.59367   -1344.9969    400.24076    391.17164    428.72608    38762.799 
   51800    300.31664   -1353.4322    411.35854    406.07774    690.06949    38762.799 
   51900    298.03346   -1317.3147    426.54537    447.13266    437.48585    38762.799 
   52000     311.9519   -1314.4283    420.29051    506.24544    556.99397    38762.799 
   52100    296.34455   -1364.7421    419.59394    385.17216    494.27619    38762.799 
   52200    307.75934   -1386.6207    433.50828    428.45003    388.51259    38762.799 
   52300    305.61612   -1352.3581    382.80964    402.39281    111.58111    38762.799 
   52400    300.08277   -1364.7655    421.59968     403.9357    138.13447    38762.799 
   52500    292.55924   -1415.9242    399.00958    296.41311   -396.27042    38762.799 
   52600    294.03642   -1344.2686    417.35979    393.05007   -804.26246    38762.799 
   52700    307.36001   -1389.1985    432.83943    423.41071   -393.41901    38762.799 
   52800    304.53024   -1390.9749    405.36299    381.45475   -689.44434    38762.799 
   52900    292.35254   -1361.1767    409.31649    360.53954   -71.044981    38762.799 
   53000     298.4837   -1369.6036    420.33916    390.65874    131.19271    38762.799 
   53100    293.37103   -1388.6701    408.52972    336.83148    220.81423    38762.799 
   53200    289.30973   -1392.3328    438.02509    344.43263    356.87105    38762.799 
   53300    301.94108   -1386.3718    411.33929    380.41116    -274.9834    38762.799 
   53400    302.15603   -1371.4128    429.88243    414.87821   -373.90695    38762.799 
   53500    306.56552   -1389.1764    434.73514    421.76206    55.326359    38762.799 
   53600    299.18256   -1398.6024    399.83683    344.29484    58.451225    38762.799 
   53700    309.07199   -1396.7214    405.62075    396.35439    349.73383    38762.799 
   53800    296.44524   -1386.8008    416.96368    360.93518   -122.73544    38762.799 
   53900    301.98563   -1415.3699    431.94807    372.22188    65.552751    38762.799 
   54000    298.40268   -1392.3413    406.48978    353.70791    68.060499    38762.799 
   54100    304.01751   -1393.7872    409.01744    379.99522     107.8129    38762.799 
   54200    302.42635   -1368.5871    395.80329     384.8383    56.701459    38762.799 
   54300    303.30473   -1400.6304    411.35531    372.29013   -173.04439    38762.799 
   54400    295.15573   -1397.7879    410.55786    337.75351    147.75137    38762.799 
   54500     310.4476   -1414.3137    415.92194    395.23853    117.07158    38762.799 
   54600    293.06289   -1382.8986    417.67041    350.36044    15.248814    38762.799 
   54700    299.50839   -1386.4931     421.4525    379.48254    86.453698    38762.799 
   54800    304.29742   -1390.6621    424.71578    400.07518    454.68214    38762.799 
   54900    288.32364    -1326.026    418.59275    386.88041    189.37646    38762.799 
   55000    300.23794   -1339.6954    441.21456    449.31725    667.12403    38762.799 
   55100    292.30004   -1328.8635    412.44907    395.74967      405.909    38762.799 
   55200    313.59301   -1377.5744    452.27603    482.45197    292.17296    38762.799 
   55300    303.19844   -1396.4352    419.51022    384.16316    863.88451    38762.799 
   55400    298.13188   -1395.9715    458.10542    400.47777    642.43353    38762.799 
   55500    306.13984   -1393.8737    413.87708    394.29576    656.16369    38762.799 
   55600    294.69243   -1379.3628    425.80869    369.34962    151.80134    38762.799 
   55700    307.66777   -1353.5752    459.37852     486.9547    358.58044    38762.799 
   55800    292.44127   -1329.8619    446.84998    429.78615    585.22695    38762.799 
   55900    303.72304   -1355.5659    429.94089    437.81803       214.04    38762.799 
   56000    304.06836   -1347.0452    429.48638    447.43448    666.54947    38762.799 
   56100    290.98126    -1374.889    426.81348    358.16841    435.08507    38762.799 
   56200    306.80799    -1401.131    424.47036    400.63113    524.00053    38762.799 
   56300    296.45022   -1384.7514    424.49329    370.53657    201.98595    38762.799 
   56400    298.89759   -1350.3685    424.78707    416.19971    82.924153    38762.799 
   56500    299.54151   -1370.4737    412.32067    386.51872   -429.50115    38762.799 
   56600    309.35953   -1370.2671    432.32925    450.80797      279.835    38762.799 
   56700    293.69343   -1386.6493    424.44275    356.21263   -546.09738    38762.799 
   56800    300.78977    -1389.628    403.36979    364.01716     306.4981    38762.799 
   56900    296.10229   -1409.4767     422.3553    342.11142    460.78218    38762.799 
   57000    302.04474   -1380.7944    438.30838    413.42299    335.82018    38762.799 
   57100    309.74947   -1409.0816     439.6523    421.06703    460.39058    38762.799 
   57200    296.08636   -1394.1617    437.93288    372.93248    316.39875    38762.799 
   57300    308.99579    -1358.876    436.66013    464.89707    131.91127    38762.799 
   57400     297.9161   -1366.4283    425.72084    396.66768   -401.48638    38762.799 
   57500    309.01574   -1399.7993    443.02189    430.42508    244.71356    38762.799 
   57600    294.71881   -1398.3532    449.74519    374.41415     85.65547    38762.799 
   57700    305.36138   -1400.3766    436.74228    407.16341   -335.70754    38762.799 
   57800    299.92651    -1371.035    431.39233    406.75735   -362.45519    38762.799 
   57900    312.04868   -1387.5275    438.74578    452.03593   -320.67683    38762.799 
   58000    291.62648   -1355.4053    436.60731    390.34239   -562.34934    38762.799 
   58100    307.95715   -1383.8053    419.28934     417.9345   -763.30362    38762.799 
   58200    286.90411   -1395.5839    422.32467    314.68199   -665.78416    38762.799 
   58300    308.83673   -1359.4384    436.88023     463.8408   -595.17129    38762.799 
   58400    304.06465   -1402.5467    425.96403    388.39396   -1030.9062    38762.799 
   58500    295.00879   -1415.0519    413.30966    322.58169   -253.53061    38762.799 
   58600    291.95658   -1421.5661    440.38938    329.44553   -715.70671    38762.799 
   58700    299.75532    -1382.353    437.34795    400.62653   -302.71047    38762.799 
   58800    302.19426   -1378.2097    422.97279    401.34335    233.33794    38762.799 
   58900    299.91525   -1391.2963     432.5498      387.603    256.98364    38762.799 
   59000    293.35173   -1404.7161     417.9382    330.10733    330.03104    38762.799 
   59100    311.21851   -1405.5175    436.03937    427.61284    286.47024    38762.799 
   59200    291.20987   -1403.0008    438.76391    343.03333    111.37837    38762.799 
   59300    302.10435    -1419.464    445.08603    381.79865    177.32046    38762.799 
   59400    299.25966   -1344.7568    421.43054    420.08023    206.53731    38762.799 
   59500    302.32368   -1399.4222    433.48508    391.22408    366.84635    38762.799 
   59600     301.4289   -1418.8255    405.44066    339.75958     454.3599    38762.799 
   59700    304.27742   -1453.7133    425.24171    337.46016    30.873025    38762.799 
   59800    307.42277   -1406.4437    431.45529    405.06312    20.698088    38762.799 
   59900    301.79992   -1428.4722    415.47594    341.81377   -404.29045    38762.799 
   60000      290.889   -1437.1499    421.09383    289.77374   -6.2180183    38762.799 
   60100    313.37447   -1424.6516    416.24033    398.35808   -128.56273    38762.799 
   60200    296.39897   -1420.8303     420.0641    329.79843    92.456419    38762.799 
   60300     304.8885   -1401.0692    417.73541    385.34118    17.406182    38762.799 
   60400    296.56453   -1433.7266    401.24399    298.82519   -253.23785    38762.799 
   60500    290.85137    -1439.789     397.6259    263.49773     12.99012    38762.799 
   60600    310.44623   -1406.3111     412.0811    399.39413   -61.082644    38762.799 
   60700     307.6514   -1396.0751     441.2298    426.23253   -491.92114    38762.799 
   60800    299.13105    -1378.852    425.75291    389.73015   -186.53317    38762.799 
   60900    319.52166   -1402.9659    443.88172    475.28045    -177.8582    38762.799 
   61000    291.78964   -1427.0897    437.35379    320.13699   -458.60874    38762.799 
   61100    302.75791   -1398.3463    404.41839    365.18258   -364.79041    38762.799 
   61200    297.90056   -1379.9327     450.4847     407.8574    431.77829    38762.799 
   61300    308.59837   -1384.0651    419.56984    420.83368   -96.486844    38762.799 
   61400    297.81245   -1380.6834    431.34049    387.56698    168.20007    38762.799 
   61500    298.76114   -1396.3554    428.75096    373.56413   -144.12605    38762.799 
   61600    306.22599   -1387.4909    418.94728    406.13541   -23.885719    38762.799 
   61700    308.59368   -1381.8658    423.19155    426.63363     410.9096    38762.799 
   61800    294.26625   -1417.1145    428.22923    332.10539    49.660353    38762.799 
   61900     310.0802   -1412.9456    417.25221    396.28763    113.19298    38762.799 
   62000    305.46251   -1386.5342    432.28979    417.00727    346.55467    38762.799 
   62100    300.24123   -1404.3249    438.66866    382.15669    204.96106    38762.799 
   62200    305.63063    -1369.672    456.16373    458.49814    142.29552    38762.799 
   62300    298.14803   -1395.4186    446.73224    389.72994    13.957432    38762.799 
   62400     297.0605   -1388.3681    443.24298    388.40913   -284.21891    38762.799 
   62500    309.42797   -1371.8669    419.02287    436.20907    111.98015    38762.799 
   62600    289.15635   -1395.8121    428.53854    330.77817    -306.8347    38762.799 
   62700    304.63437   -1438.7048    438.64907    367.47842    126.94296    38762.799 
   62800    297.48816   -1408.2944    436.11786    363.27752    31.718392    38762.799 
   62900    304.92531   -1434.3822    430.18315    364.64114    232.26258    38762.799 
   63000    296.77784   -1387.5911    466.35015     411.0244    371.12594    38762.799 
   63100    302.24145   -1392.3959    431.48047    395.87665    545.34341    38762.799 
   63200    302.02665   -1379.0491     459.8288    436.60756    369.38447    38762.799 
   63300    301.66635    -1409.334    432.25172    377.12815    286.50754    38762.799 
   63400    296.45149   -1373.6275    419.18675    376.35964   -459.70887    38762.799 
   63500    296.72268   -1390.4647    405.66201    347.21506   -77.061334    38762.799 
   63600    291.41865   -1389.1364    428.52612    347.59716   -105.15952    38762.799 
   63700    299.66044   -1399.7198    429.24782    374.73371    44.792327    38762.799 
   63800    295.34229   -1382.3668    437.04061    380.49482    102.30201    38762.799 
   63900    290.99725    -1405.457    442.27432    343.13308    126.78366    38762.799 
   64000    300.69002   -1389.3888    446.96213    407.40087    45.907701    38762.799 
   64100    299.70455    -1408.503    411.41739    348.31803    -188.1549    38762.799 
   64200    305.84065   -1447.6892    427.59167     352.8517   -466.36022    38762.799 
   64300    310.24406   -1435.9974    418.84184    375.56101   -511.53273    38762.799 
   64400    296.14274   -1397.3331    436.39452    368.47576   -886.05222    38762.799 
   64500    303.21117   -1377.6016    436.94997    420.49361   -534.71913    38762.799 
   64600    301.48935   -1375.6943    454.10009    431.82161   -343.70983    38762.799 
   64700    303.35852   -1408.9372    428.09708    380.96656   -448.70604    38762.799 
   64800    301.56319   -1417.7492    413.83291    349.83104   -53.113688    38762.799 
   64900     302.1829   -1391.0999    433.70236    399.13168   -266.07129    38762.799 
   65000    300.50087   -1415.2958    476.43198    410.11461   -419.05634    38762.799 
   65100    300.10077   -1400.4406    445.42238    392.16413   -67.311535    38762.799 
   65200    294.75276   -1446.1622    414.08508     291.0975   -54.289724    38762.799 
   65300    299.05796   -1434.7409    421.75746    329.51756    588.71036    38762.799 
   65400     305.3633   -1436.0934    427.34023    362.05322    37.947873    38762.799 
   65500    306.02943   -1379.4393    461.32443    455.68178    293.29605    38762.799 
   65600    294.00777    -1381.867    432.21261    370.17584   -295.09874    38762.799 
   65700    305.70294   -1409.4957    427.31086    390.14618   -512.81502    38762.799 
   65800    297.21098   -1419.0842    428.60868    343.73427   -369.84421    38762.799 
   65900    293.96583   -1404.5701    438.60478    353.67669   -362.07701    38762.799 
   66000    300.75667   -1402.5639     424.3915    371.95439    130.57284    38762.799 
   66100    295.06029   -1444.4102    436.98297    317.12795    145.37128    38762.799 
   66200    298.02353   -1434.6753     434.5046    337.68669    713.52196    38762.799 
   66300    302.06221    -1423.092     451.0623    383.95769    471.94502    38762.799 
   66400      311.575   -1439.4168    431.87345      391.148     670.1686    38762.799 
   66500    303.21773   -1461.8644    433.99441     333.3047    757.66287    38762.799 
   66600    299.71628   -1473.7533    456.33629    328.03933    1124.7519    38762.799 
   66700    305.36816   -1476.4205    443.82998    338.23766     1238.909    38762.799 
   66800    294.19435   -1462.7393    426.55199    284.48048    722.45242    38762.799 
   66900    306.07247   -1441.9237    415.12234    347.18859    -174.4878    38762.799 
   67000    302.13646   -1415.9153    426.03874    366.44417   -190.32822    38762.799 
   67100    298.00575   -1422.9097    421.36238    336.23025   -625.03624    38762.799 
   67200     301.2496   -1410.3343    432.80594    374.81117   -613.78428    38762.799 
   67300    305.88301   -1401.9853    458.88243    430.03655   -671.19587    38762.799 
   67400    298.17023   -1415.8981     421.0108    343.62867   -430.86643    38762.799 
   67500    300.45742    -1394.882    438.13625    392.03759   -546.87098    38762.799 
   67600    309.85225    -1425.801     435.8108    400.96747   -427.98173    38762.799 
   67700    298.84286   -1463.8043    444.13351    321.86465    361.15937    38762.799 
   67800    287.69493   -1418.0819    437.60321    311.01261    132.04415    38762.799 
   67900    313.02075   -1395.3336    457.66715      467.515    17.117124    38762.799 
   68000    302.81851   -1390.6355    451.93586    420.68297    147.83274    38762.799 
   68100    302.24127   -1416.3758    442.87037     383.2858    363.46883    38762.799 
   68200    297.57311    -1440.701    440.47913     335.6136     -249.525    38762.799 
   68300    294.95249   -1473.9933    426.97471    277.05256  -0.26061366    38762.799 
   68400    295.95011   -1505.5573    422.11766    245.11002    -335.9265    38762.799 
   68500    292.36874    -1467.565    420.31394    265.22142   -338.07896    38762.799 
   68600    300.80588   -1483.8615    453.43095    319.91714   -429.53554    38762.799 
   68700    300.31217   -1428.0259      432.735    352.84039   -472.15167    38762.799 
   68800    302.13003   -1417.4508    459.84798    398.68908   -403.30856    38762.799 
   68900    293.16794   -1424.0532    433.98837    325.99539   -379.13669    38762.799 
   69000    298.61039   -1446.2594    433.18973    327.42221   -317.22274    38762.799 
   69100    301.48037   -1404.7294    432.40274     381.0489   -385.86922    38762.799 
   69200    309.63274   -1468.1312    452.09362    373.93478   -299.61418    38762.799 
   69300     304.5681    -1417.038    438.78804    388.98666   -37.761294    38762.799 
   69400    301.68659   -1378.5229     465.1626    440.94093   -170.25073    38762.799 
   69500     305.9521   -1440.7169    465.63037    398.36302    61.178807    38762.799 
   69600    294.40166    -1406.162    450.44034    365.87683   -181.55054    38762.799 
   69700    299.45722   -1429.3783    434.43711    349.35217    143.85051    38762.799 
   69800      303.664   -1452.5007    456.42099    367.09831    109.03968    38762.799 
   69900    305.42784   -1452.7048     442.4969    360.88818   -332.24348    38762.799 
   70000    294.80612   -1469.4365    430.40695    284.38462   -418.74327    38762.799 
   70100    297.52332   -1437.6269    471.67418    369.65924    32.126844    38762.799 
   70200    291.02925   -1431.0397    462.14886    337.56853   -496.32101    38762.799 
   70300    299.66063   -1424.6923     462.3322    382.84635   -163.61924    38762.799 
   70400    302.18761   -1467.3751    438.13006    327.30537    295.92036    38762.799 
   70500    298.33747   -1485.9397    443.49439    296.82136   -377.65305    38762.799 
   70600    292.25515   -1435.4191    462.54711    339.09056   -31.401867    38762.799 
   70700    294.63872   -1440.1697    444.72678    327.21972   -728.77956    38762.799 
   70800    296.05082   -1451.3987    431.56306    309.16606   -254.16747    38762.799 
   70900    292.24981   -1471.9052    458.87607     298.9095    83.089001    38762.799 
   71000    309.38153   -1472.3867    458.65846    375.11637    33.158639    38762.799 
   71100    293.87221    -1438.327    445.53514     326.4299   -242.38438    38762.799 
   71200    289.18645   -1459.0855    429.30352     268.4049   -621.46396    38762.799 
   71300    302.66878   -1420.6299    433.56508    371.64559   -591.22463    38762.799 
   71400    304.90958   -1468.5413    451.36277    351.59107   -137.25176    38762.799 
   71500    297.19047   -1435.2288    440.14604    339.03498   -252.64116    38762.799 
   71600    301.25832   -1415.4435    460.02843    396.96367   -403.07826    38762.799 
   71700    300.80351    -1371.499    460.86591    439.70397   -603.31434    38762.799 
   71800     308.4713   -1375.9352    434.44192    443.26521   -191.40854    38762.799 
   71900    308.07421   -1346.0831    453.25217    490.14496   -379.10271    38762.799 
   72000    306.13143   -1393.0408    456.52548    437.73921   -282.16402    38762.799 
   72100    294.45718   -1436.3407    439.55858    325.06556    46.366004    38762.799 
   72200    313.01445   -1422.4171    444.46745    427.20353    94.757495    38762.799 
   72300    306.25157   -1453.7933    443.58842    364.58903   -82.591496    38762.799 
   72400    306.56204   -1411.9382    440.31201    404.56149    37.464521    38762.799 
   72500    307.71391   -1438.8853    437.87149    380.34467    570.71962    38762.799 
   72600    310.03263    -1399.473    474.04398    466.33847     993.7153    38762.799 
   72700    310.56703   -1402.4109    460.72635    452.48191      563.607    38762.799 
   72800    295.45922   -1419.2259    439.00589      346.126    480.40132    38762.799 
   72900    294.34555   -1469.8003     451.9643     303.5106    918.29793    38762.799 
   73000     295.0583   -1431.2053    466.85015    360.19104    762.52128    38762.799 
   73100    304.26662   -1386.9026    447.22575    426.20637     22.56287    38762.799 
   73200    309.08872   -1404.8399    445.70676    428.39702    198.81569    38762.799 
   73300    300.38981   -1455.1509    432.83347    326.16247    247.78232    38762.799 
   73400    304.26714   -1453.1543    420.72769    333.45905   -246.70809    38762.799 
   73500    298.29398   -1424.2799     452.5969    367.38842    23.189883    38762.799 
   73600    306.10561   -1428.8558    444.78616    390.06901    232.42057    38762.799 
   73700    307.38695   -1370.1932    444.86672    454.56427    239.49287    38762.799 
   73800    305.95102   -1401.0207    436.34511    408.76915    416.11799    38762.799 
   73900    305.09873   -1398.0565    431.38971    402.95191     150.9687    38762.799 
   74000    297.67528   -1384.1296    437.01923    389.18369  -0.72864873    38762.799 
   74100    290.22883   -1363.6944    444.92952     384.1013     86.14591    38762.799 
   74200    309.42997    -1377.536    460.34294    471.86898    372.85302    38762.799 
   74300    294.14642   -1394.2217    481.94617    408.17715   -289.66669    38762.799 
   74400    300.54194   -1403.8653    434.91196    380.20946    118.60215    38762.799 
   74500    299.13837    -1405.333     462.3765    399.90552    119.78367    38762.799 
   74600    298.63497   -1394.7722    447.95359    393.78362    -96.15013    38762.799 
   74700    304.49104   -1384.6703    449.48655    431.70697     46.06748    38762.799 
   74800    310.76601   -1390.0005    467.83862    472.89781    -75.27305    38762.799 
   74900    294.83171   -1356.0108    454.65647    422.17471   -608.59489    38762.799 
   75000    315.77343   -1422.6877    445.94358    440.79438    297.36944    38762.799 
   75100    302.82669   -1427.3875    426.72693    358.75868     72.54597    38762.799 
   75200    298.41993   -1395.1341    434.57695    379.07979    52.090517    38762.799 
   75300    302.36875   -1401.7301     444.2402    399.87364    1.2389312    38762.799 
   75400    292.88744   -1381.1223    460.45724    394.13591    -271.9449    38762.799 
   75500    310.04878   -1418.7257    455.16378    428.27806   -136.42191    38762.799 
   75600     301.5835   -1373.8096    429.20449    409.23336    173.52636    38762.799 
   75700     308.2394   -1388.1807    436.00171     431.5385    19.426268    38762.799 
   75800    297.21888   -1427.1384    434.92689    342.03372   -268.73615    38762.799 
   75900    302.09173   -1410.7468    463.71242    409.08557   -582.33572    38762.799 
   76000    303.72027   -1426.0746    435.56549    372.92152   -120.98875    38762.799 
   76100    285.68016   -1470.0276    443.01469    255.43385    320.22297    38762.799 
   76200    290.28317   -1412.3456    459.20921    349.97371    445.77746    38762.799 
   76300    300.50169     -1426.93    464.27065    386.32277    640.79415    38762.799 
   76400    306.08056   -1436.5442    435.93609    373.41814    423.36682    38762.799 
   76500    314.68393   -1404.1495    402.27874    410.77685   -121.94951    38762.799 
   76600    303.83542    -1425.175    434.85138    373.62389   -435.23237    38762.799 
   76700    295.53787   -1418.7188    424.24323    332.22351   -119.84965    38762.799 
   76800    292.40744    -1440.575    425.04122    297.11244   -385.21903    38762.799 
   76900    306.91742   -1421.7974    437.36354     393.3491   -133.86484    38762.799 
   77000    299.23451    -1415.318    443.15212    371.12769    411.51446    38762.799 
   77100    300.37983   -1423.4285    458.30195    383.30854    395.62171    38762.799 
   77200    304.62906   -1408.8579    444.39558    403.04799    300.08077    38762.799 
   77300    307.79067   -1417.3308    453.25258    417.62487    5.4297351    38762.799 
   77400    292.56948   -1394.1374    442.46318    361.69943    44.256837    38762.799 
   77500    305.11588   -1398.0223    454.30198    425.97533    -392.8901    38762.799 
   77600     293.8899   -1393.0163     447.3712    373.65605   -563.62909    38762.799 
   77700    304.16323   -1431.8656    421.96124    355.51476   -244.36525    38762.799 
   77800    306.12862   -1406.8146    438.68377     406.1111   -191.93469    38762.799 
   77900    305.64938   -1384.6395    451.95892    439.40997     141.3664    38762.799 
   78000    309.16932   -1445.1391    428.83396     371.5868    128.28091    38762.799 
   78100    300.50404    -1496.078     414.5237    267.43836    8.4212035    38762.799 
   78200    307.72418   -1424.3575     441.0594    398.10648    243.03403    38762.799 
   78300    306.49176   -1445.8182     429.3287    359.38261    602.86671    38762.799 
   78400    296.20143   -1422.1005    443.83567    351.41303     695.3079    38762.799 
   78500    310.30427   -1472.0558    431.34614    352.27721     552.4981    38762.799 
   78600    299.16665   -1467.2739    452.22169    327.93679    402.28905    38762.799 
   78700    304.65798   -1481.9881    431.24659    316.89864   -4.0509274    38762.799 
   78800    311.63076   -1449.3594    428.51186    378.09408    151.54176    38762.799 
   78900    306.13743   -1444.1517    429.15576    359.28558     520.8581    38762.799 
   79000    297.71905   -1441.2089    409.28449    304.56614    37.139501    38762.799 
   79100    300.10367   -1442.7414    448.58955    353.04351   -12.354519    38762.799 
   79200     289.2006   -1448.2703    441.64611    291.62623     358.3091    38762.799 
   79300    296.44501   -1465.4418    440.54418    305.87371   -1.6149636    38762.799 
   79400    289.51961   -1502.6029    457.56808     254.6476    549.35659    38762.799 
   79500    298.57724    -1448.441    451.67142    343.57349    443.11079    38762.799 
   79600    299.02029   -1418.4348    468.63183    392.52904    296.45667    38762.799 
   79700     306.5439   -1422.6798    463.12311    416.54948    86.945612    38762.799 
   79800    296.43538   -1430.0382    433.95445    334.64433   -117.73145    38762.799 
   79900    301.98108   -1458.8575    465.61593    362.38165   -487.73931    38762.799 
   80000     291.4672   -1437.2588     468.6141    339.78066   -534.04918    38762.799 
   80100     305.7247   -1463.2621    446.71018    355.87679    413.27073    38762.799 
   80200    308.22801   -1513.7355     439.9055    309.83631    80.308951    38762.799 
   80300    289.72727   -1464.3397    452.31886    288.59386    328.33677    38762.799 
   80400    304.03755   -1474.4747    458.94007    349.32034    550.33745    38762.799 
   80500    290.07459   -1475.9089    422.29613    248.56107    239.34099    38762.799 
   80600    304.31564    -1471.395     465.0005    359.70882   -411.88345    38762.799 
   80700    300.82321   -1467.3229    441.87308    324.97561   -266.26248    38762.799 
   80800    307.00154   -1471.2242    437.19145    344.12779   -182.27077    38762.799 
   80900    302.88066   -1482.3881    429.16336    306.43676   -242.52117    38762.799 
   81000    309.64414   -1458.7616    456.55754    387.81938   -147.03953    38762.799 
   81100    300.59345   -1430.1161    450.04522     369.3232   -118.01446    38762.799 
   81200    303.81935   -1439.3763    453.26917    377.76826    329.08479    38762.799 
   81300    295.37881    -1439.821    463.68069    349.84469    316.37947    38762.799 
   81400    306.47159   -1502.4528    463.86011    337.18885     186.9061    38762.799 
   81500    307.74282   -1501.8375    443.13933    322.79007    474.87329    38762.799 
   81600     303.5069   -1531.1267    462.64718    293.99325    -29.06874    38762.799 
   81700    310.66871    -1440.118    463.95336    418.45828    86.693609    38762.799 
   81800    293.52374   -1413.6937    474.52373    378.48743   -133.48762    38762.799 
   81900    308.92067   -1460.4124    456.78989    383.15328    -82.00774    38762.799 
   82000    295.90014   -1442.4613    436.46276    322.32679   -474.79784    38762.799 
   82100    288.52713   -1453.5174    432.72329    274.43305    -494.4593    38762.799 
   82200    297.83848   -1485.4278    446.57677    298.17571   -621.02581    38762.799 
   82300    293.68081   -1446.1432    453.83774    326.05705   -374.53409    38762.799 
   82400     304.8123   -1486.3445    459.63457    341.62294   -650.17726    38762.799 
   82500     292.5026   -1492.7319    441.96972    262.31124   -12.629444    38762.799 
   82600    294.66315   -1472.9632    439.21449    289.02361   -272.35669    38762.799 
   82700     300.9187   -1464.9791    470.55842    356.43351   -15.464517    38762.799 
   82800    291.13319   -1453.7339     446.6198     299.8119    364.37795    38762.799 
   82900    303.95041   -1473.2952    460.44856    351.61707    563.78529    38762.799 
   83000    302.53956   -1440.9553    482.20349    399.37852    864.74861    38762.799 
   83100    298.79224   -1450.2428    436.80922    327.87463      855.301    38762.799 
   83200    293.12515   -1465.3596    457.48888    307.99735    1154.8775    38762.799 
   83300     301.4049   -1415.4019    490.49407    428.12896    664.46201    38762.799 
   83400    291.90085   -1445.6139    461.97992    326.73806    288.80602    38762.799 
   83500    296.20539   -1450.4836    444.44706    323.65906   -1.4793991    38762.799 
   83600    306.21072   -1367.1128    469.69311    477.19078   -330.32491    38762.799 
   83700    285.42026   -1438.0077    470.36931    313.64173   -720.20182    38762.799 
   83800    295.39773   -1456.5739    450.30305    319.79906   -868.96776    38762.799 
   83900    294.66005    -1444.803    461.16612    339.12151   -634.98713    38762.799 
   84000    315.20624   -1449.8873    498.41369    463.51875    -405.3988    38762.799 
   84100    299.48601   -1423.3063    456.86249    377.97884   -183.61758    38762.799 
   84200    310.02491   -1437.6667    485.20469    439.27075   -180.51856    38762.799 
   84300    300.80218   -1433.3186    471.23854    388.25099   -101.22303    38762.799 
   84400    289.69448   -1452.0307    461.11953     309.5563   -674.17935    38762.799 
   84500    292.31796   -1440.5153    448.44644    320.17568   -341.73385    38762.799 
   84600    300.41169   -1467.8172    447.52834    328.28924   -312.80322    38762.799 
   84700    307.21296   -1465.0309    462.49566    376.57438    76.105821    38762.799 
   84800    310.30849   -1499.3416    422.60725    316.27154   -90.235944    38762.799 
   84900    313.65812   -1469.7083     475.0233    413.35763    13.122239    38762.799 
   85000    296.14525   -1478.6486    463.16244    313.93944   -366.16256    38762.799 
   85100    304.25546   -1449.4573     442.5937    358.96954   -66.261857    38762.799 
   85200    308.28473   -1477.8907    450.25408    356.28436   -238.93804    38762.799 
   85300     302.1936   -1487.8854     471.6364    340.32821    304.29309    38762.799 
   85400    305.60919   -1491.5114    468.00831    348.40708   -21.564565    38762.799 
   85500    300.09911   -1460.7753     449.0761    335.47572    -264.5266    38762.799 
   85600    286.78054   -1444.6295    473.41421    316.17118   -76.400272    38762.799 
   85700    308.75948   -1463.8607    457.11487    379.30638     730.8195    38762.799 
   85800    296.77031   -1451.4225     485.5969    366.40602    651.10623    38762.799 
   85900    293.10279   -1447.0726    456.18446    324.87959    866.56583    38762.799 
   86000    304.88124   -1440.3772    450.39821    378.66336    59.718427    38762.799 
   86100    297.14171   -1473.5163    467.47197    327.85445    91.473422    38762.799 
   86200    306.50806   -1445.0119    474.48906    405.42246    166.62221    38762.799 
   86300    304.32137   -1427.8619    449.81718    388.08431   -194.44409    38762.799 
   86400    312.87192    -1462.777    451.68277    393.41909    364.70959    38762.799 
   86500    310.72779   -1487.9571    433.85085    340.78181   -234.63171    38762.799 
   86600    302.00068   -1493.0465    445.79934    308.46401    -119.0631    38762.799 
   86700    295.92555   -1497.9115    456.60682    287.13473    63.310393    38762.799 
   86800    295.40438   -1443.1393    437.16206    320.12257    6.0146095    38762.799 
   86900    292.76864   -1465.7522    466.31783    314.83338    -38.86229    38762.799 
   87000     306.2222   -1472.9733     465.5751    367.26391    264.73186    38762.799 
   87100    297.24559   -1393.9328    486.85003    427.28235    451.61074    38762.799 
   87200    307.12519   -1410.7963    476.03413    443.95345    168.44032    38762.799 
   87300    291.14666   -1426.9363    470.05546    350.10564    59.758306    38762.799 
   87400    301.45294   -1420.4773    487.95101    420.72614     296.2544    38762.799 
   87500    300.41213   -1438.0367    462.94336    373.48677    291.98867    38762.799 
   87600    297.17466   -1423.7532    481.49515     391.7887     60.96137    38762.799 
   87700    291.56626   -1417.3199    478.70832    370.25846    256.92693    38762.799 
   87800    286.31768   -1412.1285    479.85433    353.03453    239.27283    38762.799 
   87900    294.04054    -1408.464    466.17937    377.69269   -95.183216    38762.799 
   88000    297.38271   -1388.2645    473.18447    419.90065   -109.91651    38762.799 
   88100    298.06196   -1422.1306    475.08347    390.98284   -430.61856    38762.799 
   88200    304.17579   -1402.0667    467.90218    431.31105   -217.93141    38762.799 
   88300    297.07448   -1426.1964    486.87757    394.27822   -601.91023    38762.799 
   88400    305.60666   -1449.7529     457.1334    379.27936    30.020964    38762.799 
   88500    307.01211   -1477.9512    447.78823    348.04505    88.552603    38762.799 
   88600    294.14754   -1431.4208    457.83118    346.86808   -191.24314    38762.799 
   88700    307.64705   -1471.8591    450.26239    359.46164    91.489687    38762.799 
   88800    291.56136   -1482.5683    479.59819    305.87797    123.57204    38762.799 
   88900    304.23762   -1476.8284    454.31168    343.23641    180.63324    38762.799 
   89000    309.22768   -1475.1209    448.43377    361.46684    245.19418    38762.799 
   89100    293.78354   -1475.2826    482.12293    325.66403    282.42428    38762.799 
   89200    309.86582   -1425.2103    449.10437    414.91269    503.63452    38762.799 
   89300    307.20373   -1440.5712    486.54744    425.04449    252.42806    38762.799 
   89400    311.60809   -1469.9181    423.20413    352.12593    806.99881    38762.799 
   89500    299.84943   -1460.1717    441.82868    327.71099    131.22486    38762.799 
   89600     301.3007   -1457.4591     461.5756    356.68547    506.95855    38762.799 
   89700    297.63412   -1459.9715    406.70139    282.83923    45.681149    38762.799 
   89800    293.28254   -1503.8374    446.18164    258.91883   -70.399372    38762.799 
   89900    297.55799   -1451.8318     471.7647    355.70043   -305.64284    38762.799 
   90000    295.55254   -1460.1328    456.48963    323.12177   -861.98308    38762.799 
   90100    308.81191   -1448.0398     463.7929    402.04062   -71.771141    38762.799 
   90200    291.61211   -1424.2587    482.45188     367.2691     70.45529    38762.799 
   90300    297.64348    -1452.851    443.25472    326.55507     96.62568    38762.799 
[...]
  984000    306.67456   -1500.0844    485.05828    361.66659      184.747    38762.799 
  984100    297.42504   -1501.3312    471.81013    305.64967    19.734237    38762.799 
  984200    291.69778   -1528.1658    495.59513    276.88981    166.17217    38762.799 
  984300    293.42609   -1449.8137    495.31458    362.71994      38.4274    38762.799 
  984400    296.15128   -1521.7985    466.01225    273.66643   -381.36701    38762.799 
  984500    301.33924   -1482.0782    475.30642    345.97018   -430.27413    38762.799 
  984600    304.54304   -1489.2913    472.98813    350.82103   -441.36076    38762.799 
  984700    296.95165   -1509.4804     453.0187    276.58397   -247.57492    38762.799 
  984800    299.01286   -1516.3461    468.16356    294.11604   -164.44012    38762.799 
  984900    312.53349   -1525.0462    470.77987    348.72775   -269.10318    38762.799 
  985000    305.14858   -1491.7147    477.85019     355.9779   -44.815407    38762.799 
  985100    293.51648   -1503.9554    468.40361    282.07304   -102.32209    38762.799 
  985200    295.01283   -1486.3457    474.54113     312.5375    78.875105    38762.799 
  985300    305.90011   -1483.2873    490.46038    380.38924    68.593612    38762.799 
  985400    295.63152   -1489.9964    496.37848    333.50154    159.17298    38762.799 
  985500    292.66467   -1481.0873    473.47335      306.187   -86.482421    38762.799 
  985600    311.27515   -1517.5449    453.22874     333.0291    -98.39223    38762.799 
  985700    298.77462   -1536.9179    428.04771    232.35889    224.38759    38762.799 
  985800    295.96835    -1483.894     508.0557    352.79315     372.7347    38762.799 
  985900    316.25994    -1512.239    462.69921    370.18264    777.00346    38762.799 
  986000    304.83068   -1496.0358    454.54179    326.92138    303.46477    38762.799 
  986100    306.55532   -1472.4588    478.98769    382.68636    156.00007    38762.799 
  986200    305.85576   -1440.8131    472.94332    405.14734    353.79616    38762.799 
  986300    308.95327   -1477.5523    468.01748     377.3873    507.91957    38762.799 
  986400    300.32351    -1472.628    470.13645    345.69073    678.81538    38762.799 
  986500    305.37139   -1486.4585    457.91173    342.29596    1111.0719    38762.799 
  986600    291.74321   -1480.6698    463.02774    292.02236    428.81251    38762.799 
  986700    292.72534    -1480.874    475.44076    308.64006    177.55969    38762.799 
  986800    295.73965   -1483.4563    457.01421    301.16278    -334.8785    38762.799 
  986900    295.22067   -1498.2993    458.53939    285.51517     78.71714    38762.799 
  987000    300.41052   -1480.5709    492.40958    360.41146   -38.139871    38762.799 
  987100    297.60826   -1470.6671    472.39438    337.72048    540.62491    38762.799 
  987200    308.83535   -1493.1763    498.03484    391.25124    511.44842    38762.799 
  987300    305.59637   -1485.9086    446.74506     332.6891    519.60317    38762.799 
  987400     295.1601   -1507.6325      466.779    284.14972   -263.82565    38762.799 
  987500     297.6237   -1455.5893     475.9551    356.42827    87.256669    38762.799 
  987600    317.68102   -1424.4048    494.04292    495.73997    235.31144    38762.799 
  987700    287.77764   -1461.8573    475.71717    305.72245   -32.555715    38762.799 
  987800    298.29196   -1492.5691    470.85218    317.34551    368.25101    38762.799 
  987900    292.37851   -1514.7663    460.19442    257.94442    451.85362    38762.799 
  988000    309.20602   -1501.4156    483.34488    369.98603    1089.0846    38762.799 
  988100     303.7302   -1497.0257    458.38396    324.83351    516.25557    38762.799 
  988200    296.88528   -1511.3292    480.49212    301.91057    28.834071    38762.799 
  988300    305.38286   -1510.9754    457.65085    317.56959   -580.01977    38762.799 
  988400    296.73555   -1531.8019    441.83459    242.10823   -613.73148    38762.799 
  988500    306.19509   -1519.8008    476.51545    331.25503   -387.61395    38762.799 
  988600    293.76919    -1526.885    466.95435    258.82858   -173.61094    38762.799 
  988700    304.41866   -1528.9535     456.8256    294.43785   -33.631513    38762.799 
  988800    297.17879    -1508.316    488.88603    314.63531   -314.69258    38762.799 
  988900    298.95617   -1493.6604    471.56448    319.94813   -1018.4826    38762.799 
  989000    286.56657   -1504.2891    503.22101    285.35781   -1274.0925    38762.799 
  989100    295.64286   -1489.7998    475.56985     312.9404   -1125.5739    38762.799 
  989200    306.67043    -1453.303     480.0724    403.44362   -352.72015    38762.799 
  989300    309.82158   -1471.1797    466.69757    386.33796    -201.1464    38762.799 
  989400     307.7142   -1442.9445    475.33883     413.7541    51.368415    38762.799 
  989500    301.64835   -1474.6816    450.99261    330.44059   -139.37012    38762.799 
  989600    306.09347    -1503.065    454.74095    325.76016    469.39108    38762.799 
  989700    295.48341     -1487.65    484.93964    323.74413    10.333467    38762.799 
  989800    307.85439   -1454.0223    468.39103    396.35781    156.12204    38762.799 
  989900    305.46523   -1455.6653     475.2347     390.8333    401.03295    38762.799 
  990000    297.08175   -1433.7939     501.2507    401.08649    519.23228    38762.799 
  990100    292.84664   -1475.0738    467.41231    306.95637    69.545061    38762.799 
  990200     296.8602   -1476.8115    469.78548    325.60904   -215.77399    38762.799 
  990300    301.10598   -1481.9487    465.09489    334.84099    4.6476702    38762.799 
  990400    302.53166   -1485.2841    483.20644    356.01724   -281.88911    38762.799 
  990500    298.33923   -1458.6268    499.77731    380.42513   -480.74259    38762.799 
  990600    295.17817   -1499.4373    444.12565    269.77262   -355.18696    38762.799 
  990700    302.11399   -1495.0562    483.55637    344.72005    187.86314    38762.799 
  990800    298.59844   -1522.5436    486.27649     304.1711    617.08924    38762.799 
  990900    304.80315   -1478.3406    473.40732    363.35852    683.79909    38762.799 
  991000    298.28876   -1477.6319    476.71026     338.1264    615.85986    38762.799 
  991100    309.24651   -1491.9838    448.79222    345.04688    153.28679    38762.799 
  991200    289.37632   -1463.3457    482.31711    318.01067   -294.10182    38762.799 
  991300    296.03916   -1470.9936    465.59459    323.55037   -547.67687    38762.799 
  991400    299.35809   -1476.4689    486.56658    353.94607   -481.12741    38762.799 
  991500    299.78684   -1470.9578    500.44551    375.26082   -252.04884    38762.799 
  991600    303.57158   -1489.7431    472.55816    345.57824    57.185615    38762.799 
  991700    307.49556   -1524.6241    469.80649    325.56068     57.19401    38762.799 
  991800    301.15407   -1485.1545    508.34277    375.09901    51.363811    38762.799 
  991900    305.46303     -1482.34    463.63983     352.5539    637.91169    38762.799 
  992000    300.81259   -1524.9855     503.1438    328.53604    828.40596    38762.799 
  992100    291.31801   -1492.4504    481.19713    296.50241    300.49014    38762.799 
  992200    302.52842   -1515.0853    480.57399    323.56901    230.28069    38762.799 
  992300     292.2871   -1490.2486     496.9612    318.81864   -105.85482    38762.799 
  992400    302.48475   -1533.4081    495.71468    320.19083   -238.65835    38762.799 
  992500    307.94142   -1501.5351    487.31754    368.16227    243.60394    38762.799 
  992600     297.8201    -1499.254    449.48226    287.17242   -391.86744    38762.799 
  992700    301.52693   -1461.6392    513.88197    405.82731   -202.53039    38762.799 
  992800    299.44556    -1497.414    468.89573    315.72281    -134.4107    38762.799 
  992900    303.69497   -1449.9263    485.19766    398.58843    270.17737    38762.799 
  993000    309.72793   -1532.7332    476.57968    334.24607    65.876471    38762.799 
  993100    309.45482   -1533.1691    474.20978    330.21429    268.31053    38762.799 
  993200    305.52199   -1516.2399    467.09995     322.3788   -24.622492    38762.799 
  993300    297.05502   -1478.4384     499.8703    354.94158   -248.97926    38762.799 
  993400    298.59391   -1453.4837    490.44549    377.37967   -101.81524    38762.799 
  993500    304.74189   -1485.5377    498.57302    381.05208    -25.06683    38762.799 
  993600    287.94732   -1448.5752    479.44114     323.4902    434.42278    38762.799 
  993700      296.002   -1467.7295    491.39537    352.44847   -147.36019    38762.799 
  993800    297.78674   -1485.9839    471.00747    321.81802    225.82515    38762.799 
  993900    300.49782    -1511.126    469.39995    307.23872    141.87901    38762.799 
  994000    299.20949    -1521.826    465.74063    287.09598    1.5881298    38762.799 
  994100    283.43078   -1484.0277    475.14537    263.46673   -48.924281    38762.799 
  994200    306.33545   -1526.4321     475.3179    324.05628   -219.32238    38762.799 
  994300     303.1316   -1472.1156    508.29795    396.97035    290.95221    38762.799 
  994400    301.18735   -1526.3919     490.6592    316.32739    316.09165    38762.799 
  994500    296.62699   -1515.2252    494.12731    310.49033      133.202    38762.799 
  994600     295.9147   -1448.2339     502.3736    382.53033   -386.98402    38762.799 
  994700    298.27343   -1521.3365    453.20439    270.84709  -0.98939768    38762.799 
  994800     298.1212   -1539.0268    492.71816     291.9872    155.17915    38762.799 
  994900    287.80068   -1511.8107    475.86345    256.01881   -485.00674    38762.799 
  995000    299.13885   -1479.2973     477.9653    341.53219   -341.05382    38762.799 
  995100    303.32153   -1476.0039    474.44249    360.07921   -196.35883    38762.799 
  995200    305.34467   -1477.9366    484.26144    377.04754   -114.45156    38762.799 
  995300    296.12256   -1518.5656    459.22749     269.9856    513.88022    38762.799 
  995400    298.55279   -1523.7028    469.63589    286.16636    528.93741    38762.799 
  995500    303.52739   -1533.3781    474.67598    303.86273    369.34676    38762.799 
  995600    305.31839   -1501.9499    471.20375    339.85866   -136.04797    38762.799 
  995700    300.08238   -1529.6484    476.98542    294.43686    168.14377    38762.799 
  995800    287.54597   -1502.5037    485.36143     273.6803    157.84236    38762.799 
  995900    297.25598   -1517.9543    486.64236     303.0999    11.620965    38762.799 
  996000     296.7943   -1535.3692    449.07829    246.04839    335.07896    38762.799 
  996100    305.07714   -1570.3551     464.1911    263.35782   -328.07953    38762.799 
  996200    290.56988   -1536.3838    474.60436    242.61776   -469.83492    38762.799 
  996300    287.36904   -1565.2673    469.05109    193.81211   -382.82612    38762.799 
  996400    305.31327   -1579.1549    449.86354    241.29041    8.0064574    38762.799 
  996500       308.23   -1545.0871    463.82084    302.40899   -59.506266    38762.799 
  996600    304.54269   -1551.1848    488.24536    304.18308    306.57459    38762.799 
  996700    295.75362   -1536.1855    460.92139    252.40342      132.803    38762.799 
  996800    295.04031   -1558.3879    477.59489    243.67243   -251.40067    38762.799 
  996900    299.01897   -1533.6385    470.69129    279.37885   -228.22361    38762.799 
  997000    308.87578   -1542.1439    455.16877    299.59907    150.00459    38762.799 
  997100    302.93642   -1542.7653    472.84703    289.99365    347.59425    38762.799 
  997200    294.34874   -1534.0098    472.64089    259.99203    311.55716    38762.799 
  997300    304.84091   -1558.2995    484.92969     295.0915    123.32166    38762.799 
  997400    302.94967   -1550.7769    474.50715    283.70165    215.31964    38762.799 
  997500    289.72279   -1543.4646    491.16202    248.29193    10.692768    38762.799 
  997600    298.59473    -1565.627    473.91668    248.71124    371.88532    38762.799 
  997700    312.04731   -1540.7008    509.81562    369.92639    722.16336    38762.799 
  997800    307.29005   -1522.3378    473.15268    330.27062    371.36717    38762.799 
  997900    296.22569   -1529.4631    466.20814    266.53175    335.08979    38762.799 
  998000    304.42021    -1570.097    462.03304    258.50877     444.4262    38762.799 
  998100     308.9072   -1514.0749    472.16536    344.80574   -338.86227    38762.799 
  998200    303.73384   -1504.0571    491.72739    351.16188   -322.38741    38762.799 
  998300    292.69985   -1510.9031    460.72897    263.78477   -281.37369    38762.799 
  998400    303.95918   -1564.5706    465.93008    265.86266   -15.573201    38762.799 
  998500    303.69618   -1531.9605    497.45696    328.81898    133.58494    38762.799 
  998600    300.06029   -1508.0446    453.85582    292.81191     205.5636    38762.799 
  998700    294.29222   -1548.5058    475.22527    247.82664    463.83865    38762.799 
  998800    303.37977   -1551.7188    499.03275    309.21601    470.26976    38762.799 
  998900    292.11234   -1553.3864    455.62331    213.55839    489.44769    38762.799 
  999000    301.20054   -1535.5786    479.47907    296.01981    262.35132    38762.799 
  999100    303.77462   -1548.1667    472.35309    287.86096    486.70067    38762.799 
  999200    293.76816    -1568.174    475.69642    226.27705    724.30615    38762.799 
  999300    305.32689   -1541.8567    485.77617     314.5624    783.90766    38762.799 
  999400    309.26676   -1535.8466    475.04912    327.53191    589.27495    38762.799 
  999500    291.21108   -1569.1919    469.59747    207.68119     609.7082    38762.799 
  999600    297.75088    -1562.225    465.52742    239.93592   -68.752856    38762.799 
  999700    295.32877   -1564.0866    490.86128    252.53506    674.73205    38762.799 
  999800    300.21588   -1559.7957    471.28327    259.18671    701.66234    38762.799 
  999900    294.76009   -1553.0683    485.78841    255.92764    891.54872    38762.799 
 1000000    294.64838   -1564.9674    480.34214    238.08077     427.6305    38762.799 
 1000100    297.37441   -1535.1497    482.43721    282.23096    526.26567    38762.799 
 1000200    308.26905   -1550.6678    484.42359    317.60638     268.1749    38762.799 
 1000300    296.35111   -1545.7839    479.61882    264.18468    316.74045    38762.799 
 1000400    289.06713   -1527.0393    469.43098    240.04289   -931.61053    38762.799 
 1000500     304.2908   -1524.9795      495.523    336.53531   -322.25729    38762.799 
 1000600     295.1518   -1531.7778    479.57101    272.75916   -883.76994    38762.799 
 1000700    295.59233   -1518.8733    465.32366    273.39388   -454.43875    38762.799 
 1000800    301.16727   -1504.1569    492.12102    339.93412    -813.3279    38762.799 
 1000900    294.16452   -1521.2857    478.44672    277.69496   -335.18443    38762.799 
 1001000    296.16595    -1513.882    461.63351    277.27002   -344.50534    38762.799 
 1001100    301.67678    -1527.507    507.12292    333.87314    204.98663    38762.799 
 1001200    297.41398   -1493.7048    471.75615    313.17249   -267.48702    38762.799 
 1001300    298.32597   -1521.9022    469.48036     286.7932    556.32358    38762.799 
 1001400    296.60818   -1506.7414    481.38943    306.15182    65.915217    38762.799 
 1001500    288.35065   -1521.1563    487.18704    260.46566    61.604258    38762.799 
 1001600    297.45894   -1524.7762     477.0132    287.55994     69.27666    38762.799 
 1001700    293.86809   -1521.5289    497.05421    294.72852    301.81955    38762.799 
 1001800    305.76744   -1535.0212     447.2161     284.8155   -379.02959    38762.799 
 1001900    292.58609   -1522.4655     480.0083    270.99099   -159.79293    38762.799 
 1002000    294.54896   -1524.4794    494.34529    292.12561    161.82427    38762.799 
 1002100    310.25093    -1519.103    485.16471    358.80917   -263.11305    38762.799 
 1002200    295.88327   -1539.8207    474.21752    262.64635    166.61801    38762.799 
 1002300    300.67451   -1567.6819    471.44778    253.52385    399.52124    38762.799 
 1002400    306.28727   -1519.2645    519.35715    375.04683    558.78867    38762.799 
 1002500    300.15789   -1513.5494    471.76813    305.65748    630.74423    38762.799 
 1002600    298.93452   -1522.7794    460.45883     279.6263    429.28927    38762.799 
 1002700    299.49846   -1528.0016    472.01339     288.4903    104.13117    38762.799 
 1002800    303.80815    -1508.241    474.07361    329.65777    54.180939    38762.799 
 1002900    296.11488   -1512.9758    486.91485    303.22835    92.049703    38762.799 
 1003000    302.69866        -1511    481.78515    329.62962    238.76191    38762.799 
 1003100     287.7514   -1483.6224    510.54887    318.67132    301.48918    38762.799 
 1003200    297.94986   -1481.0331    487.29084    343.78446     262.8776    38762.799 
 1003300    299.62783   -1550.2685    478.74423      273.535    271.36354    38762.799 
 1003400    304.79036   -1488.1313    492.16977    372.27287    28.883452    38762.799 
 1003500    304.31129   -1485.4524    466.76667    347.39806    221.64458    38762.799 
 1003600    290.46675   -1500.3843    489.59822    293.14823    165.48865    38762.799 
 1003700    289.09946   -1487.0254    505.61795    316.38892    412.19004    38762.799 
 1003800     295.4914    -1514.897    497.68705    309.28042    103.87434    38762.799 
 1003900    304.91327   -1554.4023    504.11358    318.49739    190.59306    38762.799 
 1004000    294.26802   -1524.6325     471.6393    268.00539    397.90267    38762.799 
 1004100    295.92474   -1497.3218    490.10462    321.21856   -402.77989    38762.799 
 1004200    304.94837   -1506.7883    496.73998    358.89534    11.867752    38762.799 
 1004300    302.33442   -1520.3457    464.13257    300.99632   -355.45272    38762.799 
 1004400    302.18411   -1538.8736    495.93322    313.59431    525.97429    38762.799 
 1004500     304.3154   -1522.9003    475.97095    319.17288    607.90606    38762.799 
 1004600    305.32975   -1538.0503    504.53961    337.14509    864.51032    38762.799 
 1004700    311.13733   -1585.1005    480.08717    291.71322    140.94468    38762.799 
 1004800    295.23082   -1512.9967     481.1749    293.49885    306.57619    38762.799 
 1004900     317.4256   -1535.3121    475.66114    365.30428    421.95621    38762.799 
 1005000     299.1797   -1536.7712     485.2528    291.52915    239.02849    38762.799 
 1005074    302.05868   -1521.4667    492.02315    326.52802   -348.05674    38762.799 
Loop time of 606.4 on 32 procs for 1000000 steps with 1507 atoms

Performance: 142.480 ns/day, 0.168 hours/ns, 1649.075 timesteps/s
100.0% CPU use with 32 MPI tasks x no OpenMP threads

MPI task timing breakdown:
Section |  min time  |  avg time  |  max time  |%varavg| %total
---------------------------------------------------------------
Pair    | 245.85     | 268.86     | 299.96     |  90.7 | 44.34
Bond    | 1.3893     | 1.5082     | 1.5853     |   3.9 |  0.25
Neigh   | 39.105     | 39.192     | 39.276     |   1.1 |  6.46
Comm    | 254.18     | 285.14     | 307.73     |  87.7 | 47.02
Output  | 0.3954     | 0.41132    | 0.8365     |  11.9 |  0.07
Modify  | 8.2904     | 8.5467     | 8.7702     |   5.0 |  1.41
Other   |            | 2.744      |            |       |  0.45

Nlocal:        47.0938 ave          71 max          18 min
Histogram: 4 1 2 4 2 3 5 5 1 5
Nghost:        1935.66 ave        2091 max        1774 min
Histogram: 9 7 0 0 0 0 0 0 4 12
Neighs:        5250.78 ave        9956 max        1552 min
Histogram: 5 5 2 2 4 4 4 1 2 3

Total # of neighbors = 168025
Ave neighs/atom = 111.49635
Ave special neighs/atom = 2.0106171
Neighbor list builds = 49632
Dangerous builds = 0
The system volume is 38762.7992598561
Lattice vectors
33.8432226183029 0 0
0 33.8432226183029 0
0 0 33.8432226183029
Total wall time: 0:10:11
