LAMMPS data file
 1515 atoms
 1014 bonds
 524 angles
 28 dihedrals
 2 impropers
 7 atom types
 7 bond types
 4 angle types
 3 dihedral types
 1 improper types
 0 15 xlo xhi
 0 15 ylo yhi
 0 15 zlo zhi
 0 0 0 xy xz yz

# Atom types
#
# 1 N_2
# 2 C_2
# 3 O_2
# 4 C_3
# 5 H__HB
# 6 H_
# 7 O_3

# Bond Coeffs
#
# 1 N_2*C_2
# 2 N_2*H__HB
# 3 C_2*O_2
# 4 C_2*C_3
# 5 C_3*C_3
# 6 C_3*H_
# 7 O_3*H__HB

# Angle Coeffs
#
# 1 N_2
# 2 C_2
# 3 C_3
# 4 O_3

# Dihedral Coeffs
#
# 1 C1
# 2 B1
# 3 A1

# Inversion Coeffs
#
# 1 1

 Masses

 1 14.01
 2 12.01
 3 16
 4 12.01
 5 1.01
 6 1.01
 7 16

 Atoms # full

1 1 1 0 3.80625358545267 10.4182991197269 9.18389402739577
2 1 2 0 4.41778499291777 10.9282095441822 10.2834129752614
3 1 3 0 4.37649441655576 10.3476129500193 11.3945189752227
4 1 4 0 5.1568315592644 12.2186850072522 10.1712408219185
5 1 4 0 4.579250888456 13.2976928846303 11.1435920286666
6 1 4 0 5.20667097808531 14.7022494707678 10.9744672892951
7 1 5 0 3.89308137363232 10.9438395573226 8.37273039183788
8 1 6 0 4.96335758447793 12.6119603090693 9.16648076197333
9 1 6 0 3.50366415791731 13.3936263088012 10.9654923003796
10 1 6 0 4.70841665663414 12.9842267264468 12.1828457859389
11 1 6 0 5.08186299040063 15.054791798622 9.94879008213823
12 1 6 0 4.71525605132713 15.4085183568083 11.6463732949018
13 1 6 0 6.27071037136934 14.6810913054774 11.215885021828
14 1 6 0 6.635062872741 11.9969395508314 10.3205214181591
15 1 5 0 3.09103505373905 9.27529411338621 9.05842790697458
16 2 5 0 3.10092613144778 6.02685502072796 10.6061014439911
17 2 7 0 4.06092613144778 6.02685502072796 10.6061014439911
18 2 5 0 4.30092613144778 5.09685502072796 10.6061014439911
19 3 5 0 13.8333439039718 3.8509448784776 3.16264310153201
20 3 7 0 14.7933439039718 3.8509448784776 3.16264310153201
21 3 5 0 15.0333439039718 2.9209448784776 3.16264310153201
22 4 5 0 3.69332477261312 12.4071607835963 13.5659146180842
23 4 7 0 4.65332477261312 12.4071607835963 13.5659146180842
24 4 5 0 4.89332477261312 11.4771607835963 13.5659146180842
25 5 5 0 2.09323564122431 8.41977020533755 12.9787916305941
26 5 7 0 3.05323564122431 8.41977020533755 12.9787916305941
27 5 5 0 3.29323564122431 7.48977020533755 12.9787916305941
28 6 5 0 5.75379399393685 11.888678364167 14.5166847005021
29 6 7 0 6.71379399393685 11.888678364167 14.5166847005021
30 6 5 0 6.95379399393685 10.958678364167 14.5166847005021
31 7 5 0 13.8777610058617 7.383469304014 9.07500168657862
32 7 7 0 14.8377610058617 7.383469304014 9.07500168657862
33 7 5 0 15.0777610058617 6.453469304014 9.07500168657862
34 8 5 0 12.5833422357403 9.803259297451 9.03614553390071
35 8 7 0 13.5433422357403 9.803259297451 9.03614553390071
36 8 5 0 13.7833422357403 8.87325929745101 9.03614553390071
37 9 5 0 4.50127254400402 3.22765839676373 4.31621951283887
38 9 7 0 5.46127254400402 3.22765839676373 4.31621951283887
39 9 5 0 5.70127254400402 2.29765839676373 4.31621951283887
40 10 5 0 14.1215936983656 12.6980601779092 11.0766358464025
41 10 7 0 15.0815936983656 12.6980601779092 11.0766358464025
42 10 5 0 15.3215936983656 11.7680601779092 11.0766358464025
43 11 5 0 8.76972259182483 12.2733941305801 13.0155119800474
44 11 7 0 9.72972259182483 12.2733941305801 13.0155119800474
45 11 5 0 9.96972259182483 11.3433941305801 13.0155119800474
46 12 5 0 12.9021880861558 12.3197149722278 0.826302148634568
47 12 7 0 13.8621880861558 12.3197149722278 0.826302148634568
48 12 5 0 14.1021880861558 11.3897149722278 0.826302148634568
49 13 5 0 11.7103196487017 13.448325130567 7.43404950946569
50 13 7 0 12.6703196487017 13.448325130567 7.43404950946569
51 13 5 0 12.9103196487017 12.518325130567 7.43404950946569
52 14 5 0 5.98225514215417 4.39149015391245 11.596936363494
53 14 7 0 6.94225514215417 4.39149015391245 11.596936363494
54 14 5 0 7.18225514215417 3.46149015391245 11.596936363494
55 15 5 0 7.34642692652531 5.99224582821131 10.2609550463967
56 15 7 0 8.30642692652531 5.99224582821131 10.2609550463967
57 15 5 0 8.54642692652531 5.06224582821131 10.2609550463967
58 16 5 0 2.25692655469291 2.38382371649146 9.60589212714694
59 16 7 0 3.21692655469291 2.38382371649146 9.60589212714694
60 16 5 0 3.45692655469291 1.45382371649146 9.60589212714694
61 17 5 0 13.260025537312 6.86039836885408 4.82621030998416
62 17 7 0 14.220025537312 6.86039836885408 4.82621030998416
63 17 5 0 14.460025537312 5.93039836885408 4.82621030998416
64 18 5 0 3.51252665321343 1.90018402686343 3.83000323665328
65 18 7 0 4.47252665321343 1.90018402686343 3.83000323665328
66 18 5 0 4.71252665321343 0.970184026863426 3.83000323665328
67 19 5 0 12.6127755262144 1.22348320012912 3.90261873020791
68 19 7 0 13.5727755262144 1.22348320012912 3.90261873020791
69 19 5 0 13.8127755262144 0.293483200129121 3.90261873020791
70 20 5 0 3.43167663129978 8.42002781963907 2.34856746392325
71 20 7 0 4.39167663129978 8.42002781963907 2.34856746392325
72 20 5 0 4.63167663129978 7.49002781963907 2.34856746392325
73 21 5 0 1.09602922151797 2.27964669390582 11.6555601975415
74 21 7 0 2.05602922151797 2.27964669390582 11.6555601975415
75 21 5 0 2.29602922151797 1.34964669390582 11.6555601975415
76 22 5 0 13.3328435097076 1.10831081442535 6.60251752124168
77 22 7 0 14.2928435097076 1.10831081442535 6.60251752124168
78 22 5 0 14.5328435097076 0.178310814425349 6.60251752124168
79 23 5 0 5.44552840336226 5.22523337550461 12.3219686024822
80 23 7 0 6.40552840336226 5.22523337550461 12.3219686024822
81 23 5 0 6.64552840336226 4.29523337550461 12.3219686024822
82 24 5 0 13.7091251432151 8.4255684706755 9.38947441522032
83 24 7 0 14.6691251432151 8.4255684706755 9.38947441522032
84 24 5 0 14.9091251432151 7.4955684706755 9.38947441522032
85 25 5 0 12.243620518567 1.94517899462022 5.01683490816504
86 25 7 0 13.203620518567 1.94517899462022 5.01683490816504
87 25 5 0 13.443620518567 1.01517899462022 5.01683490816504
88 26 5 0 0.113437774563208 1.51436311000958 3.72368135838769
89 26 7 0 1.07343777456321 1.51436311000958 3.72368135838769
90 26 5 0 1.31343777456321 0.584363110009581 3.72368135838769
91 27 5 0 6.41359983055852 1.5399048434943 4.3508751236368
92 27 7 0 7.37359983055852 1.5399048434943 4.3508751236368
93 27 5 0 7.61359983055852 0.609904843494296 4.3508751236368
94 28 5 0 12.1681368075963 6.50924412341788 6.06983202276751
95 28 7 0 13.1281368075963 6.50924412341788 6.06983202276751
96 28 5 0 13.3681368075963 5.57924412341788 6.06983202276751
97 29 5 0 5.06823205316439 2.40635443985462 10.6897528725676
98 29 7 0 6.02823205316439 2.40635443985462 10.6897528725676
99 29 5 0 6.26823205316439 1.47635443985462 10.6897528725676
100 30 5 0 0.310526681570336 8.20328875252977 10.2041633881163
101 30 7 0 1.27052668157034 8.20328875252977 10.2041633881163
102 30 5 0 1.51052668157034 7.27328875252977 10.2041633881163
103 31 5 0 9.4533916264493 6.95156299317256 7.20775698660873
104 31 7 0 10.4133916264493 6.95156299317256 7.20775698660873
105 31 5 0 10.6533916264493 6.02156299317256 7.20775698660873
106 32 5 0 13.4680761086941 5.56671157985926 3.38651192723773
107 32 7 0 14.4280761086941 5.56671157985926 3.38651192723773
108 32 5 0 14.6680761086941 4.63671157985926 3.38651192723773
109 33 5 0 7.71901370535605 11.112368435543 3.7155820929911
110 33 7 0 8.67901370535605 11.112368435543 3.7155820929911
111 33 5 0 8.91901370535605 10.182368435543 3.7155820929911
112 34 5 0 1.25255658335052 5.93157511245459 8.4205378848128
113 34 7 0 2.21255658335052 5.93157511245459 8.4205378848128
114 34 5 0 2.45255658335052 5.00157511245459 8.4205378848128
115 35 5 0 6.66378045964055 12.1148003851436 11.3704286841676
116 35 7 0 7.62378045964055 12.1148003851436 11.3704286841676
117 35 5 0 7.86378045964055 11.1848003851436 11.3704286841676
118 36 5 0 2.51832229943946 15.0476143105794 1.28654851927422
119 36 7 0 3.47832229943946 15.0476143105794 1.28654851927422
120 36 5 0 3.71832229943946 14.1176143105794 1.28654851927422
121 37 5 0 14.0126640284155 6.7908602980338 6.08026310568675
122 37 7 0 14.9726640284155 6.7908602980338 6.08026310568675
123 37 5 0 15.2126640284155 5.8608602980338 6.08026310568675
124 38 5 0 5.20812684830278 3.64795378101058 3.37984798592515
125 38 7 0 6.16812684830278 3.64795378101058 3.37984798592515
126 38 5 0 6.40812684830278 2.71795378101058 3.37984798592515
127 39 5 0 11.0677273948397 12.5398156365287 12.1005476592109
128 39 7 0 12.0277273948397 12.5398156365287 12.1005476592109
129 39 5 0 12.2677273948397 11.6098156365287 12.1005476592109
130 40 5 0 2.00991234669462 4.8350245812349 2.29317993856966
131 40 7 0 2.96991234669462 4.8350245812349 2.29317993856966
132 40 5 0 3.20991234669462 3.9050245812349 2.29317993856966
133 41 5 0 2.70724486486986 11.4280173303001 0.707485667662695
134 41 7 0 3.66724486486986 11.4280173303001 0.707485667662695
135 41 5 0 3.90724486486986 10.4980173303001 0.707485667662695
136 42 5 0 5.84989514711313 9.66033933026716 9.60951262735762
137 42 7 0 6.80989514711313 9.66033933026716 9.60951262735762
138 42 5 0 7.04989514711313 8.73033933026716 9.60951262735762
139 43 5 0 7.92658403210342 6.89495425595902 1.53950820327736
140 43 7 0 8.88658403210342 6.89495425595902 1.53950820327736
141 43 5 0 9.12658403210342 5.96495425595902 1.53950820327736
142 44 5 0 11.2401343770046 8.24781417305581 13.8760403590277
143 44 7 0 12.2001343770046 8.24781417305581 13.8760403590277
144 44 5 0 12.4401343770046 7.31781417305581 13.8760403590277
145 45 5 0 9.21096323101781 14.0573536108155 3.06467746384442
146 45 7 0 10.1709632310178 14.0573536108155 3.06467746384442
147 45 5 0 10.4109632310178 13.1273536108155 3.06467746384442
148 46 5 0 3.17625588431954 10.2818744796701 3.0169413483236
149 46 7 0 4.13625588431954 10.2818744796701 3.0169413483236
150 46 5 0 4.37625588431954 9.35187447967008 3.0169413483236
151 47 5 0 -0.126495454022661 3.21742548648268 5.58730386779644
152 47 7 0 0.833504545977339 3.21742548648268 5.58730386779644
153 47 5 0 1.07350454597734 2.28742548648268 5.58730386779644
154 48 5 0 13.2368018435966 3.80116665543988 7.7939411974512
155 48 7 0 14.1968018435966 3.80116665543988 7.7939411974512
156 48 5 0 14.4368018435966 2.87116665543988 7.7939411974512
157 49 5 0 3.34985694193281 2.42971681914292 0.540119324577972
158 49 7 0 4.30985694193281 2.42971681914292 0.540119324577972
159 49 5 0 4.54985694193281 1.49971681914292 0.540119324577972
160 50 5 0 12.2592110680137 6.52290341950953 9.46561314747669
161 50 7 0 13.2192110680137 6.52290341950953 9.46561314747669
162 50 5 0 13.4592110680137 5.59290341950953 9.46561314747669
163 51 5 0 13.9826688989718 1.30694987409748 3.96637366851792
164 51 7 0 14.9426688989718 1.30694987409748 3.96637366851792
165 51 5 0 15.1826688989718 0.376949874097481 3.96637366851792
166 52 5 0 9.10165427994914 11.0696967183053 11.0675277176779
167 52 7 0 10.0616542799491 11.0696967183053 11.0675277176779
168 52 5 0 10.3016542799491 10.1396967183054 11.0675277176779
169 53 5 0 13.1637123219855 1.35433755390346 4.84727972885594
170 53 7 0 14.1237123219855 1.35433755390346 4.84727972885594
171 53 5 0 14.3637123219855 0.42433755390346 4.84727972885594
172 54 5 0 8.2570247193519 9.42930008325726 14.204202897381
173 54 7 0 9.2170247193519 9.42930008325726 14.204202897381
174 54 5 0 9.4570247193519 8.49930008325726 14.204202897381
175 55 5 0 8.03946362852119 11.9660267726891 8.0803287809249
176 55 7 0 8.99946362852119 11.9660267726891 8.0803287809249
177 55 5 0 9.23946362852119 11.0360267726891 8.0803287809249
178 56 5 0 7.83867994367145 8.60821157967672 7.69105443614535
179 56 7 0 8.79867994367145 8.60821157967672 7.69105443614535
180 56 5 0 9.03867994367145 7.67821157967672 7.69105443614535
181 57 5 0 11.6846311341226 11.1226440166961 11.8059441936202
182 57 7 0 12.6446311341226 11.1226440166961 11.8059441936202
183 57 5 0 12.8846311341226 10.1926440166961 11.8059441936202
184 58 5 0 12.4356120200548 0.492556345826015 8.49315416067839
185 58 7 0 13.3956120200548 0.492556345826015 8.49315416067839
186 58 5 0 13.6356120200548 -0.437443654173985 8.49315416067839
187 59 5 0 7.52590510921553 4.45286010549404 2.37384037929587
188 59 7 0 8.48590510921553 4.45286010549404 2.37384037929587
189 59 5 0 8.72590510921553 3.52286010549404 2.37384037929587
190 60 5 0 3.56220848436467 1.17006257915869 3.05384313454852
191 60 7 0 4.52220848436467 1.17006257915869 3.05384313454852
192 60 5 0 4.76220848436467 0.240062579158694 3.05384313454852
193 61 5 0 1.57473940911703 7.28229670127854 13.4187470935285
194 61 7 0 2.53473940911703 7.28229670127854 13.4187470935285
195 61 5 0 2.77473940911703 6.35229670127854 13.4187470935285
196 62 5 0 7.21254281510599 10.5664866363537 2.69486288772896
197 62 7 0 8.17254281510599 10.5664866363537 2.69486288772896
198 62 5 0 8.41254281510599 9.63648663635366 2.69486288772896
199 63 5 0 7.48705152000301 3.77255461685359 6.08022771659307
200 63 7 0 8.44705152000301 3.77255461685359 6.08022771659307
201 63 5 0 8.68705152000301 2.84255461685359 6.08022771659307
202 64 5 0 4.32962954786606 8.53994544520043 6.84525497839786
203 64 7 0 5.28962954786606 8.53994544520043 6.84525497839786
204 64 5 0 5.52962954786606 7.60994544520043 6.84525497839786
205 65 5 0 2.09038073706441 1.78375231608748 3.73797294683754
206 65 7 0 3.05038073706441 1.78375231608748 3.73797294683754
207 65 5 0 3.29038073706441 0.853752316087484 3.73797294683754
208 66 5 0 2.56752584871836 2.41006757406518 9.18228501453996
209 66 7 0 3.52752584871836 2.41006757406518 9.18228501453996
210 66 5 0 3.76752584871836 1.48006757406518 9.18228501453996
211 67 5 0 2.7179460720811 9.52915527782403 7.34574948786758
212 67 7 0 3.6779460720811 9.52915527782403 7.34574948786758
213 67 5 0 3.9179460720811 8.59915527782403 7.34574948786758
214 68 5 0 5.12204137790948 2.57938775624149 6.4816068043001
215 68 7 0 6.08204137790948 2.57938775624149 6.4816068043001
216 68 5 0 6.32204137790948 1.64938775624149 6.4816068043001
217 69 5 0 12.8584168657847 3.52580807096325 5.10872375336476
218 69 7 0 13.8184168657847 3.52580807096325 5.10872375336476
219 69 5 0 14.0584168657847 2.59580807096325 5.10872375336476
220 70 5 0 2.00632714128122 12.0590584554616 0.459848341997713
221 70 7 0 2.96632714128122 12.0590584554616 0.459848341997713
222 70 5 0 3.20632714128122 11.1290584554616 0.459848341997713
223 71 5 0 3.21365073949099 13.3908035552036 12.2393496148288
224 71 7 0 4.17365073949099 13.3908035552036 12.2393496148288
225 71 5 0 4.41365073949099 12.4608035552036 12.2393496148288
226 72 5 0 0.0321070644725114 7.7230147008691 5.39494921686128
227 72 7 0 0.992107064472511 7.7230147008691 5.39494921686128
228 72 5 0 1.23210706447251 6.7930147008691 5.39494921686128
229 73 5 0 6.49584242186509 6.56663893646561 7.13541509932838
230 73 7 0 7.45584242186509 6.56663893646561 7.13541509932838
231 73 5 0 7.69584242186509 5.63663893646561 7.13541509932838
232 74 5 0 13.7848747945111 8.70048461988568 13.2329428545199
233 74 7 0 14.7448747945111 8.70048461988568 13.2329428545199
234 74 5 0 14.9848747945111 7.77048461988568 13.2329428545199
235 75 5 0 5.98465128379874 10.4639796660654 4.78261216543615
236 75 7 0 6.94465128379874 10.4639796660654 4.78261216543615
237 75 5 0 7.18465128379874 9.53397966606543 4.78261216543615
238 76 5 0 -0.427601069239899 6.71095017384738 4.26179251167923
239 76 7 0 0.5323989307601 6.71095017384738 4.26179251167923
240 76 5 0 0.7723989307601 5.78095017384738 4.26179251167923
241 77 5 0 7.60932619960047 13.3777443160675 6.14325810223818
242 77 7 0 8.56932619960047 13.3777443160675 6.14325810223818
243 77 5 0 8.80932619960047 12.4477443160675 6.14325810223818
244 78 5 0 5.2478372705821 4.4509128496889 6.62157218554057
245 78 7 0 6.2078372705821 4.4509128496889 6.62157218554057
246 78 5 0 6.4478372705821 3.5209128496889 6.62157218554057
247 79 5 0 8.90844812893309 14.2983281895891 4.92428370052949
248 79 7 0 9.86844812893309 14.2983281895891 4.92428370052949
249 79 5 0 10.1084481289331 13.3683281895891 4.92428370052949
250 80 5 0 1.43762982610613 8.52875668363646 3.53609217214398
251 80 7 0 2.39762982610613 8.52875668363646 3.53609217214398
252 80 5 0 2.63762982610613 7.59875668363646 3.53609217214398
253 81 5 0 6.05820960874669 6.72858633374795 14.1154668806121
254 81 7 0 7.01820960874669 6.72858633374795 14.1154668806121
255 81 5 0 7.25820960874669 5.79858633374795 14.1154668806121
256 82 5 0 11.135756562436 12.3698939061165 9.22373869107105
257 82 7 0 12.095756562436 12.3698939061165 9.22373869107105
258 82 5 0 12.335756562436 11.4398939061165 9.22373869107105
259 83 5 0 9.9245890548639 13.5967804507259 13.2877580146305
260 83 7 0 10.8845890548639 13.5967804507259 13.2877580146305
261 83 5 0 11.1245890548639 12.6667804507259 13.2877580146305
262 84 5 0 4.89948774964549 14.9378363186866 11.5643191512208
263 84 7 0 5.85948774964549 14.9378363186866 11.5643191512208
264 84 5 0 6.09948774964549 14.0078363186866 11.5643191512208
265 85 5 0 11.1229956003092 14.2784733084869 9.15576896164566
266 85 7 0 12.0829956003092 14.2784733084869 9.15576896164566
267 85 5 0 12.3229956003092 13.3484733084869 9.15576896164566
268 86 5 0 9.27521659919992 0.388331127297133 2.85730854724534
269 86 7 0 10.2352165991999 0.388331127297133 2.85730854724534
270 86 5 0 10.4752165991999 -0.541668872702867 2.85730854724534
271 87 5 0 2.14301829619333 11.8402184573375 6.17452267440967
272 87 7 0 3.10301829619333 11.8402184573375 6.17452267440967
273 87 5 0 3.34301829619333 10.9102184573375 6.17452267440967
274 88 5 0 -0.593134206281975 8.30501250730828 12.3428950330708
275 88 7 0 0.366865793718025 8.30501250730828 12.3428950330708
276 88 5 0 0.606865793718025 7.37501250730827 12.3428950330708
277 89 5 0 5.68275052282959 4.47585186845623 14.4091042410582
278 89 7 0 6.64275052282959 4.47585186845623 14.4091042410582
279 89 5 0 6.88275052282959 3.54585186845623 14.4091042410582
280 90 5 0 13.3194088940229 4.16169361485168 9.08777198055759
281 90 7 0 14.2794088940229 4.16169361485168 9.08777198055759
282 90 5 0 14.5194088940229 3.23169361485168 9.08777198055759
283 91 5 0 2.83411119642667 3.37171469506808 8.14139478374273
284 91 7 0 3.79411119642667 3.37171469506808 8.14139478374273
285 91 5 0 4.03411119642668 2.44171469506808 8.14139478374273
286 92 5 0 2.30453460171819 6.21563629870303 8.95139534608461
287 92 7 0 3.26453460171819 6.21563629870303 8.95139534608461
288 92 5 0 3.50453460171819 5.28563629870303 8.95139534608461
289 93 5 0 3.29542908512056 11.2547945829015 9.55331373377703
290 93 7 0 4.25542908512056 11.2547945829015 9.55331373377703
291 93 5 0 4.49542908512056 10.3247945829015 9.55331373377703
292 94 5 0 11.2242843203433 4.57752173807472 8.48541638231836
293 94 7 0 12.1842843203433 4.57752173807472 8.48541638231836
294 94 5 0 12.4242843203433 3.64752173807472 8.48541638231836
295 95 5 0 2.75387936431915 3.2931433808431 9.92994385538623
296 95 7 0 3.71387936431915 3.2931433808431 9.92994385538623
297 95 5 0 3.95387936431915 2.3631433808431 9.92994385538623
298 96 5 0 9.88937352245673 15.1549772351887 2.78408990241587
299 96 7 0 10.8493735224567 15.1549772351887 2.78408990241587
300 96 5 0 11.0893735224567 14.2249772351887 2.78408990241587
301 97 5 0 5.28679060444236 4.45312863722444 4.66503089410253
302 97 7 0 6.24679060444236 4.45312863722444 4.66503089410253
303 97 5 0 6.48679060444236 3.52312863722444 4.66503089410253
304 98 5 0 8.30897330350242 13.6971130296029 1.49386214325204
305 98 7 0 9.26897330350243 13.6971130296029 1.49386214325204
306 98 5 0 9.50897330350243 12.7671130296029 1.49386214325204
307 99 5 0 0.653884119093418 5.84419048548676 11.8722998374142
308 99 7 0 1.61388411909342 5.84419048548676 11.8722998374142
309 99 5 0 1.85388411909342 4.91419048548676 11.8722998374142
310 100 5 0 5.78770630803891 10.9807102223299 14.6481733897235
311 100 7 0 6.74770630803891 10.9807102223299 14.6481733897235
312 100 5 0 6.98770630803891 10.0507102223299 14.6481733897235
313 101 5 0 9.33220427527092 3.95811905310489 0.569788101129234
314 101 7 0 10.2922042752709 3.95811905310489 0.569788101129234
315 101 5 0 10.5322042752709 3.02811905310489 0.569788101129234
316 102 5 0 9.95422652849927 13.797977279583 6.15989874699153
317 102 7 0 10.9142265284993 13.797977279583 6.15989874699153
318 102 5 0 11.1542265284993 12.867977279583 6.15989874699153
319 103 5 0 11.1052740777098 9.06423307646997 6.92133912001736
320 103 7 0 12.0652740777098 9.06423307646997 6.92133912001736
321 103 5 0 12.3052740777098 8.13423307646997 6.92133912001736
322 104 5 0 14.0102130970638 15.0273354274128 5.81636613467708
323 104 7 0 14.9702130970638 15.0273354274128 5.81636613467708
324 104 5 0 15.2102130970638 14.0973354274128 5.81636613467708
325 105 5 0 2.12922002465464 8.07524473913014 8.74529605032876
326 105 7 0 3.08922002465464 8.07524473913014 8.74529605032876
327 105 5 0 3.32922002465464 7.14524473913014 8.74529605032876
328 106 5 0 0.499361830735579 12.6668157153204 4.23621361842379
329 106 7 0 1.45936183073558 12.6668157153204 4.23621361842379
330 106 5 0 1.69936183073558 11.7368157153204 4.23621361842379
331 107 5 0 12.5797337076813 3.96582062164322 13.5846068838146
332 107 7 0 13.5397337076813 3.96582062164322 13.5846068838146
333 107 5 0 13.7797337076813 3.03582062164322 13.5846068838146
334 108 5 0 11.6065208036173 7.43388220475987 3.33099214942195
335 108 7 0 12.5665208036173 7.43388220475987 3.33099214942195
336 108 5 0 12.8065208036173 6.50388220475987 3.33099214942195
337 109 5 0 -0.197950256550685 6.92478593479842 5.81845778273419
338 109 7 0 0.762049743449315 6.92478593479842 5.81845778273419
339 109 5 0 1.00204974344932 5.99478593479842 5.81845778273419
340 110 5 0 11.4018459145166 6.60301918670535 12.7641508437227
341 110 7 0 12.3618459145166 6.60301918670535 12.7641508437227
342 110 5 0 12.6018459145166 5.67301918670535 12.7641508437227
343 111 5 0 1.81813889343292 3.90898783965036 3.97730846889317
344 111 7 0 2.77813889343292 3.90898783965036 3.97730846889317
345 111 5 0 3.01813889343292 2.97898783965036 3.97730846889317
346 112 5 0 4.67536550058983 8.93797696492635 7.55362059921026
347 112 7 0 5.63536550058983 8.93797696492635 7.55362059921026
348 112 5 0 5.87536550058983 8.00797696492635 7.55362059921026
349 113 5 0 7.97667289895006 9.01156153221615 0.947030695388094
350 113 7 0 8.93667289895006 9.01156153221615 0.947030695388094
351 113 5 0 9.17667289895006 8.08156153221615 0.947030695388094
352 114 5 0 6.52076239624992 8.59780215000734 14.2936676752288
353 114 7 0 7.48076239624992 8.59780215000734 14.2936676752288
354 114 5 0 7.72076239624992 7.66780215000734 14.2936676752288
355 115 5 0 8.89733472766355 4.60001714917831 4.13678354700096
356 115 7 0 9.85733472766355 4.60001714917831 4.13678354700096
357 115 5 0 10.0973347276635 3.67001714917831 4.13678354700096
358 116 5 0 2.98855645509437 2.57023794151843 11.5338234161027
359 116 7 0 3.94855645509437 2.57023794151843 11.5338234161027
360 116 5 0 4.18855645509437 1.64023794151843 11.5338234161027
361 117 5 0 1.27414786999114 0.77978097059764 8.55182695202529
362 117 7 0 2.23414786999114 0.77978097059764 8.55182695202529
363 117 5 0 2.47414786999114 -0.15021902940236 8.55182695202529
364 118 5 0 10.0579058581218 12.0535260675848 5.7094581972342
365 118 7 0 11.0179058581218 12.0535260675848 5.7094581972342
366 118 5 0 11.2579058581218 11.1235260675848 5.7094581972342
367 119 5 0 0.439352859249339 4.41065730335191 13.4333817148581
368 119 7 0 1.39935285924934 4.41065730335191 13.4333817148581
369 119 5 0 1.63935285924934 3.48065730335191 13.4333817148581
370 120 5 0 10.1158166785911 14.3879766289052 1.69898174819537
371 120 7 0 11.0758166785911 14.3879766289052 1.69898174819537
372 120 5 0 11.3158166785911 13.4579766289052 1.69898174819537
373 121 5 0 1.07534123162739 2.29908017482609 1.86261842027307
374 121 7 0 2.03534123162739 2.29908017482609 1.86261842027307
375 121 5 0 2.27534123162739 1.36908017482609 1.86261842027307
376 122 5 0 -0.113694014288485 6.90267149516381 3.71270120493136
377 122 7 0 0.846305985711515 6.90267149516381 3.71270120493136
378 122 5 0 1.08630598571151 5.97267149516381 3.71270120493136
379 123 5 0 7.84549171730876 2.17247295583598 9.08322689007036
380 123 7 0 8.80549171730876 2.17247295583598 9.08322689007036
381 123 5 0 9.04549171730876 1.24247295583598 9.08322689007036
382 124 5 0 0.826163780149072 2.62587966554798 12.133887904929
383 124 7 0 1.78616378014907 2.62587966554798 12.133887904929
384 124 5 0 2.02616378014907 1.69587966554798 12.133887904929
385 125 5 0 9.31620243282057 9.74470503669232 7.27645731414668
386 125 7 0 10.2762024328206 9.74470503669232 7.27645731414668
387 125 5 0 10.5162024328206 8.81470503669232 7.27645731414668
388 126 5 0 9.01944319062866 0.727604828253388 9.36585300718434
389 126 7 0 9.97944319062866 0.727604828253388 9.36585300718434
390 126 5 0 10.2194431906287 -0.202395171746612 9.36585300718434
391 127 5 0 10.6106278595701 12.163198283352 4.64466818841174
392 127 7 0 11.5706278595701 12.163198283352 4.64466818841174
393 127 5 0 11.8106278595701 11.233198283352 4.64466818841174
394 128 5 0 9.08573434615508 2.54872350994498 5.7899614633061
395 128 7 0 10.0457343461551 2.54872350994498 5.7899614633061
396 128 5 0 10.2857343461551 1.61872350994498 5.7899614633061
397 129 5 0 0.516883933888748 11.2928484477475 13.3960122673307
398 129 7 0 1.47688393388875 11.2928484477475 13.3960122673307
399 129 5 0 1.71688393388875 10.3628484477475 13.3960122673307
400 130 5 0 13.3134039868321 10.5162046085484 0.0406296656001359
401 130 7 0 14.2734039868321 10.5162046085484 0.0406296656001359
402 130 5 0 14.5134039868321 9.58620460854843 0.0406296656001359
403 131 5 0 10.7542725156248 2.85743300611153 1.01009590784088
404 131 7 0 11.7142725156248 2.85743300611153 1.01009590784088
405 131 5 0 11.9542725156248 1.92743300611153 1.01009590784088
406 132 5 0 12.7489290414099 4.56028444849886 9.44743584492244
407 132 7 0 13.7089290414099 4.56028444849886 9.44743584492244
408 132 5 0 13.9489290414099 3.63028444849886 9.44743584492244
409 133 5 0 12.8031956513599 2.46925711672753 5.94445184455253
410 133 7 0 13.7631956513599 2.46925711672753 5.94445184455253
411 133 5 0 14.0031956513599 1.53925711672753 5.94445184455253
412 134 5 0 1.54618950837292 5.46381294768304 12.3995904042386
413 134 7 0 2.50618950837292 5.46381294768304 12.3995904042386
414 134 5 0 2.74618950837292 4.53381294768304 12.3995904042386
415 135 5 0 13.5414630202297 1.8459938738402 14.4640084239654
416 135 7 0 14.5014630202297 1.8459938738402 14.4640084239654
417 135 5 0 14.7414630202297 0.915993873840198 14.4640084239654
418 136 5 0 12.3042911400273 8.50384273374453 4.95691309450194
419 136 7 0 13.2642911400273 8.50384273374453 4.95691309450194
420 136 5 0 13.5042911400273 7.57384273374453 4.95691309450194
421 137 5 0 12.319560058387 2.40863990545273 11.7522837908473
422 137 7 0 13.279560058387 2.40863990545273 11.7522837908473
423 137 5 0 13.519560058387 1.47863990545273 11.7522837908473
424 138 5 0 11.6903252717759 13.1865743318945 9.69905429868959
425 138 7 0 12.6503252717759 13.1865743318945 9.69905429868959
426 138 5 0 12.8903252717759 12.2565743318945 9.69905429868959
427 139 5 0 3.11044567890465 7.54734608618543 0.753500360297039
428 139 7 0 4.07044567890465 7.54734608618543 0.753500360297039
429 139 5 0 4.31044567890465 6.61734608618543 0.753500360297039
430 140 5 0 7.81371515055187 5.24841982912272 8.91335519263521
431 140 7 0 8.77371515055187 5.24841982912272 8.91335519263521
432 140 5 0 9.01371515055187 4.31841982912272 8.91335519263521
433 141 5 0 1.61871935983188 0.50779194612056 13.1483417772688
434 141 7 0 2.57871935983188 0.50779194612056 13.1483417772688
435 141 5 0 2.81871935983188 -0.42220805387944 13.1483417772688
436 142 5 0 9.15483486067504 9.81547716813162 5.61904948786832
437 142 7 0 10.114834860675 9.81547716813162 5.61904948786832
438 142 5 0 10.354834860675 8.88547716813162 5.61904948786832
439 143 5 0 10.8903218402714 8.94077913294546 10.094205775531
440 143 7 0 11.8503218402714 8.94077913294546 10.094205775531
441 143 5 0 12.0903218402714 8.01077913294546 10.094205775531
442 144 5 0 8.0188255354017 3.00571730052121 3.65571792237461
443 144 7 0 8.9788255354017 3.00571730052121 3.65571792237461
444 144 5 0 9.2188255354017 2.07571730052121 3.65571792237461
445 145 5 0 3.5146070415806 3.70891259325668 12.1101918804925
446 145 7 0 4.4746070415806 3.70891259325668 12.1101918804925
447 145 5 0 4.7146070415806 2.77891259325668 12.1101918804925
448 146 5 0 3.20221749178134 13.1251236870326 6.98517428361811
449 146 7 0 4.16221749178134 13.1251236870326 6.98517428361811
450 146 5 0 4.40221749178134 12.1951236870326 6.98517428361811
451 147 5 0 2.97059724966064 10.4699672890734 3.26893325778656
452 147 7 0 3.93059724966064 10.4699672890734 3.26893325778656
453 147 5 0 4.17059724966064 9.53996728907339 3.26893325778656
454 148 5 0 6.36647603052668 12.9454371756315 7.17201729887165
455 148 7 0 7.32647603052668 12.9454371756315 7.17201729887165
456 148 5 0 7.56647603052668 12.0154371756315 7.17201729887165
457 149 5 0 5.92956875494681 13.1558430233877 2.57872112444602
458 149 7 0 6.88956875494681 13.1558430233877 2.57872112444602
459 149 5 0 7.12956875494681 12.2258430233877 2.57872112444602
460 150 5 0 10.7139474693406 4.92915043066256 2.21851018024608
461 150 7 0 11.6739474693406 4.92915043066256 2.21851018024608
462 150 5 0 11.9139474693406 3.99915043066256 2.21851018024608
463 151 5 0 4.85897423976101 7.77144666452892 2.67841348657385
464 151 7 0 5.81897423976101 7.77144666452892 2.67841348657385
465 151 5 0 6.05897423976101 6.84144666452892 2.67841348657385
466 152 5 0 3.73398240583017 4.82839718502015 14.7230317653157
467 152 7 0 4.69398240583017 4.82839718502015 14.7230317653157
468 152 5 0 4.93398240583018 3.89839718502015 14.7230317653157
469 153 5 0 11.0278140047751 4.23768476973288 2.31298414408229
470 153 7 0 11.9878140047751 4.23768476973288 2.31298414408229
471 153 5 0 12.2278140047751 3.30768476973288 2.31298414408229
472 154 5 0 -0.3690483940579 4.87773614394478 2.30594724300317
473 154 7 0 0.5909516059421 4.87773614394478 2.30594724300317
474 154 5 0 0.8309516059421 3.94773614394478 2.30594724300317