LAMMPS (29 Sep 2021 - Update 1)
Reading data file ...
  triclinic box = (0.0000000 0.0000000 0.0000000) to (15.000000 15.000000 15.000000) with tilt (0.0000000 0.0000000 0.0000000)
  2 by 4 by 4 MPI processor grid
  reading atoms ...
  1515 atoms
  scanning bonds ...
  3 = max bonds/atom
  scanning angles ...
  6 = max angles/atom
  scanning dihedrals ...
  9 = max dihedrals/atom
  scanning impropers ...
  1 = max impropers/atom
  reading bonds ...
  1014 bonds
  reading angles ...
  524 angles
  reading dihedrals ...
  28 dihedrals
  reading impropers ...
  2 impropers
Finding 1-2 1-3 1-4 neighbors ...
  special bond factors lj:    0        0        1       
  special bond factors coul:  0        0        1       
     4 = max # of 1-2 neighbors
     6 = max # of 1-3 neighbors
    10 = max # of special neighbors
  special bonds CPU = 0.002 seconds
  read_data CPU = 0.017 seconds
WARNING: Using 'neigh_modify every 1 delay 0 check yes' setting during minimization (../min.cpp:188)
Neighbor list info ...
  update every 1 steps, delay 0 steps, check yes
  max neighbors/atom: 10000, page size: 100000
  master list distance cutoff = 13
  ghost atom cutoff = 13
  binsize = 6.5, bins = 3 3 3
  3 neighbor lists, perpetual/occasional/extra = 3 0 0
  (1) pair hbond/dreiding/lj, perpetual, skip from (3)
      attributes: full, newton on
      pair build: skip
      stencil: none
      bin: none
  (2) pair lj/cut, perpetual, half/full from (3)
      attributes: half, newton on
      pair build: halffull/newton
      stencil: none
      bin: none
  (3) neighbor class addition, perpetual
      attributes: full, newton on
      pair build: full/bin
      stencil: full/bin/3d
      bin: standard
Setting up cg style minimization ...
  Unit style    : real
  Current step  : 0
WARNING: Energy due to 1 extra global DOFs will be included in minimizer energies
Per MPI rank memory allocation (min/avg/max) = 14.33 | 14.72 | 15.77 Mbytes
Step Temp E_pair E_mol TotEng Press Volume 
       0            0 2.1981451e+14    273.01825 2.1981451e+14 1.7863506e+16         3375 
    5450            0   -1000.8176    29.286152   -971.53142    74.691814    37330.719 
Loop time of 5.42602 on 32 procs for 5450 steps with 1515 atoms

100.0% CPU use with 32 MPI tasks x no OpenMP threads

Minimization stats:
  Stopping criterion = energy tolerance
  Energy initial, next-to-last, final = 
       219814512145720  -970.953934828412  -971.036209789872
  Force two-norm initial, final = 8.1987661e+15 91.321802
  Force max component initial, final = 3.1541651e+15 54.019665
  Final line search alpha, max atom move = 1.0425051e-05 0.00056315775
  Iterations, force evaluations = 5450 5450

MPI task timing breakdown:
Section |  min time  |  avg time  |  max time  |%varavg| %total
---------------------------------------------------------------
Pair    | 1.5092     | 2.6234     | 4.6595     |  45.3 | 48.35
Bond    | 0.0073846  | 0.011575   | 0.025763   |   3.5 |  0.21
Neigh   | 0.10692    | 0.10714    | 0.10743    |   0.0 |  1.97
Comm    | 0.28345    | 2.3248     | 3.4406     |  48.2 | 42.84
Output  | 0          | 0          | 0          |   0.0 |  0.00
Modify  | 0          | 0          | 0          |   0.0 |  0.00
Other   |            | 0.3591     |            |       |  6.62

Nlocal:        47.3438 ave          76 max          31 min
Histogram: 3 7 2 6 8 2 1 1 1 1
Nghost:        1931.38 ave        1966 max        1900 min
Histogram: 1 3 3 6 4 7 2 3 1 2
Neighs:        4860.50 ave        8823 max        2494 min
Histogram: 1 7 6 4 7 4 1 0 1 1

Total # of neighbors = 155536
Ave neighs/atom = 102.66403
Ave special neighs/atom = 2.0303630
Neighbor list builds = 89
Dangerous builds = 0
1500 atoms in group WAT
15 atoms in group MOL
Neighbor list info ...
  update every 2 steps, delay 10 steps, check yes
  max neighbors/atom: 10000, page size: 100000
  master list distance cutoff = 13
  ghost atom cutoff = 13
  binsize = 6.5, bins = 6 6 6
  4 neighbor lists, perpetual/occasional/extra = 3 1 0
  (1) pair hbond/dreiding/lj, perpetual, skip from (4)
      attributes: full, newton on
      pair build: skip
      stencil: none
      bin: none
  (2) pair lj/cut, perpetual, half/full from (4)
      attributes: half, newton on
      pair build: halffull/newton
      stencil: none
      bin: none
  (3) compute group/group, occasional, copy from (2)
      attributes: half, newton on
      pair build: copy
      stencil: none
      bin: none
  (4) neighbor class addition, perpetual
      attributes: full, newton on
      pair build: full/bin
      stencil: full/bin/3d
      bin: standard
Setting up Verlet run ...
  Unit style    : real
  Current step  : 5450
  Time step     : 1
Per MPI rank memory allocation (min/avg/max) = 13.18 | 13.27 | 13.74 Mbytes
Step Temp E_pair E_mol TotEng Press Volume 
    5450          300   -1000.8176    29.286152    382.35251    1732.5521    37330.719 
    5500    307.93058    -1041.873    144.18055    491.98175    405.30959    37330.719 
    5600    301.26156   -1050.5536    221.56779    530.59148   -866.29887    37330.719 
    5700    298.04349   -1089.5209    164.39541    419.92887   -216.36412    37330.719 
    5800    307.39746   -1030.4818    176.80476     533.5912    498.42205    37330.719 
    5900     294.5792   -1086.8088    189.18296    431.79431    557.85051    37330.719 
    6000    303.62829   -1117.5037    185.60068    438.35513    266.20902    37330.719 
    6100    298.10443   -1067.6048    171.45797    449.18247    519.03039    37330.719 
    6200    297.92265   -1085.5146    193.22237    452.21674    539.86003    37330.719 
    6300    299.65162   -1096.8449    184.20348    439.67029    162.48097    37330.719 
    6400     300.4141   -1097.4438    187.40717    445.71609    324.74858    37330.719 
    6500    298.95129   -1101.0429    179.74321    427.85143    876.53526    37330.719 
    6600    288.79898     -1077.11    218.15962    444.38393    385.45039    37330.719 
    6700    291.68818    -1096.353     191.3924    411.41251    484.60111    37330.719 
    6800    310.51451   -1090.7079    188.09607    498.72355    382.33063    37330.719 
    6900    294.82564   -1053.1146    195.28978    472.70753   -87.519444    37330.719 
    7000    296.07604   -1081.0986    199.64724    454.72391    106.77551    37330.719 
    7100    295.90562   -1145.8945    197.49364    387.00535    220.10102    37330.719 
    7200    294.83749   -1091.4002     192.3564      431.542    346.60991    37330.719 
    7300    304.70148   -1090.0888    209.23848    494.25115    356.39463    37330.719 
    7400    297.66546   -1090.6595    208.33741    461.02619    600.43596    37330.719 
    7500    300.19133   -1133.0813     193.7041    415.37015    673.49236    37330.719 
    7600    298.65028   -1088.6206     201.8069      460.979    616.44627    37330.719 
    7700    305.19779   -1098.1837    191.17994    470.33753     1090.452    37330.719 
    7800    303.84785   -1105.3979    209.43911     475.2903    1239.2189    37330.719 
    7900    292.77759   -1082.5425    213.85653     452.6036    295.45171    37330.719 
    8000    295.02543   -1098.0492    205.86907    439.25385    279.55634    37330.719 
    8100    293.25319   -1095.0153     206.5568    434.97744    334.39726    37330.719 
    8200    300.00939   -1099.9696    193.11335    447.07004    407.99413    37330.719 
    8300    296.95492   -1068.2877    221.98003    493.83393    753.12352    37330.719 
    8400    296.58485   -1106.7533    214.67947    446.39775    204.10285    37330.719 
    8500    302.81889   -1110.5073    214.00397    470.10206     395.1708    37330.719 
    8600    294.44747   -1145.4078    205.62343    389.04132    244.47507    37330.719 
    8700    302.75034   -1151.0922    221.55103    436.75494    501.66051    37330.719 
    8800    296.66336   -1121.0278    220.14976    437.94779    198.74769    37330.719 
    8900    300.49188   -1106.1237    236.59888    486.57897    151.85836    37330.719 
    9000    305.73833   -1120.6121     208.7339     467.9025    522.06177    37330.719 
    9100    311.93421   -1096.3481    213.06461    524.45892    492.65324    37330.719 
    9200    309.31286   -1114.0031    232.30676    514.21604    319.24118    37330.719 
    9300    291.17485   -1098.6845     225.7064     441.0784    577.51948    37330.719 
    9400    296.82211   -1087.4306     234.1346    486.24627    250.77516    37330.719 
    9500    305.58404   -1121.0131     230.2702    488.34153    298.60097    37330.719 
    9600     303.8451   -1106.4048    219.09128    483.92311    116.24444    37330.719 
    9700     302.7067   -1073.8277    225.34415    517.61554    93.907636    37330.719 
    9800    303.24657   -1109.0973    245.90953    505.34778    -67.56833    37330.719 
    9900    312.96497   -1112.4084    229.11829    529.10407    115.91468    37330.719 
   10000    304.89322   -1149.1199    246.29587    473.14273    663.94667    37330.719 
   10100    301.62491   -1098.4328    236.56295    499.34723    282.56924    37330.719 
   10200    301.19905   -1123.8924    231.81274    467.21552    257.60044    37330.719 
   10300    305.97667   -1113.4489    251.90191    519.30929    320.97313    37330.719 
   10400    306.75498   -1155.6066    231.68944    460.45162    492.99866    37330.719 
   10500    301.45102   -1126.6365    234.24367    468.03951    173.33763    37330.719 
   10600    297.36247   -1146.2483    252.71431    448.44689    178.19369    37330.719 
   10700    308.18179   -1134.8803    243.63326    499.56084     162.7681    37330.719 
   10800    302.77846   -1150.9817    246.51622    461.95744    610.30637    37330.719 
   10900    297.78311   -1162.6922    255.34743    436.53438    581.49342    37330.719 
   11000    306.06861   -1190.6985    236.78695    427.35966    1093.4639    37330.719 
   11100    299.09574    -1201.198    245.93871     394.5438    1159.9172    37330.719 
   11200    295.52059   -1184.1775     264.3835    413.87456    509.35259    37330.719 
   11300    300.17166   -1176.6979    250.63354    428.59423    385.90543    37330.719 
   11400    294.88946   -1197.0165    246.19914    380.00303    85.704133    37330.719 
   11500    292.49746   -1162.9745    256.27424     413.3251    574.32976    37330.719 
   11600    299.38827   -1187.3781    260.42618    424.17127    659.15501    37330.719 
   11700    304.03761   -1155.3219    260.25523     477.0388    126.21056    37330.719 
   11800     301.8149   -1147.0274    260.82265    475.86967   -123.68317    37330.719 
   11900    296.64481   -1142.5742    251.25998    447.42788    34.468951    37330.719 
   12000    303.15053   -1176.3934    264.56191    456.27062    323.65542    37330.719 
   12100    305.16363   -1210.1536    267.32409    434.35756    774.34944    37330.719 
   12200    290.04132   -1187.7257    261.94887    383.16406    322.92501    37330.719 
   12300    293.73652   -1212.8182    269.20144    382.00045    194.11584    37330.719 
   12400    297.18599   -1159.6115    264.00216    445.57515    579.75705    37330.719 
   12500    300.91613   -1187.4831    271.57605    442.11135    541.20484    37330.719 
   12600     306.7903   -1210.4357    260.11606    434.20854    367.20031    37330.719 
   12700    306.03963   -1212.8622     257.9707    426.24896   -207.61068    37330.719 
   12800    302.65348   -1238.0382    265.04552    392.86628    242.84694    37330.719 
   12900    304.00628   -1220.7379    258.86999    410.09611    85.973389    37330.719 
   13000    310.95167   -1161.3125    271.36727    513.36294    87.140245    37330.719 
   13100    297.67102   -1202.5873    287.41506    428.20106   -54.122499    37330.719 
   13200    305.54328   -1182.1164    279.08226     475.8663    103.20956    37330.719 
   13300    295.02409   -1210.6532    283.11661    403.89137    96.552025    37330.719 
   13400    296.34697   -1158.4235    268.58791    447.56239   -246.12797    37330.719 
   13500     299.9936   -1170.2941    269.26338    452.82433    234.77947    37330.719 
   13600    296.18647   -1159.4413     277.9829    455.21528   -37.283306    37330.719 
   13700    297.68803   -1196.8152    279.46434    426.09929   -27.930418    37330.719 
   13800     303.4914    -1218.813     283.5277    434.35509    622.86512    37330.719 
   13900     295.5819   -1213.1189    284.42054    405.24692    57.250415    37330.719 
   14000    301.18912   -1212.2644    280.85548    427.84146    297.24215    37330.719 
   14100    310.73057   -1226.6032    271.50215    447.20939    5.2455365    37330.719 
   14200    307.11157   -1196.2388    304.42733    494.16657    239.47347    37330.719 
   14300    281.44995   -1160.3669    292.80569     402.6073    287.94732    37330.719 
   14400    297.81649   -1162.5377     292.1852    473.67731    307.68694    37330.719 
   14500    312.52614   -1176.3795    298.94223    532.97646    734.66508    37330.719 
   14600    300.71206    -1181.945    290.97519    466.12761    842.93089    37330.719 
   14700    288.07164   -1168.8577    287.19866    418.39282    387.32793    37330.719 
   14800    287.67128   -1184.1079    306.34618    420.48337    335.06527    37330.719 
   14900    297.17777    -1151.746     310.7072    500.10856    234.13196    37330.719 
   15000    297.99864   -1200.3143    282.97399     427.5116    121.26718    37330.719 
   15100     296.4219   -1209.7499    320.49483    448.48107    117.22517    37330.719 
   15200    298.74669   -1215.1314    287.03892    420.13533    520.46156    37330.719 
   15300    304.58513   -1213.2478    312.97193    474.30049    214.00615    37330.719 
   15400     306.8236   -1207.0865    275.61819    453.21011    215.82973    37330.719 
   15500    304.86236   -1174.4142    286.35987    487.77318    27.832101    37330.719 
   15600     296.6256   -1199.4039    290.55939    429.81096    336.62704    37330.719 
   15700    296.92333   -1178.9148    303.65643    464.74074    848.73925    37330.719 
   15800    302.47969   -1128.7774    303.27532    539.57253    862.17728    37330.719 
   15900    296.48092   -1210.4761    285.77449    413.30088     542.1899    37330.719 
   16000    316.64496   -1197.1856    287.55645    519.37261    336.53278    37330.719 
   16100    298.60809   -1182.7452    291.25421    456.11133    766.99991    37330.719 
   16200    305.68025   -1199.4023    310.98116     491.0974    48.965449    37330.719 
   16300    313.92668   -1226.5343    300.16968    490.36967   -51.381428    37330.719 
   16400    313.55141   -1212.3374    294.41303    497.11632   -72.955927    37330.719 
   16500    302.46426   -1244.0401    296.55234    417.51726    179.66141    37330.719 
   16600    307.30983   -1176.8292    297.88742    507.93101   -363.41055    37330.719 
   16700    311.23505   -1177.2786     313.9864     541.2949    50.299767    37330.719 
   16800    302.07519   -1185.9079     304.7478    482.08903    637.76135    37330.719 
   16900    307.04179   -1202.2992    307.87588    491.23984    311.91482    37330.719 
   17000    305.51552   -1166.8935    295.42937    507.31098    519.60042    37330.719 
   17100    308.29159   -1161.6117    308.75376    538.44547   -34.150495    37330.719 
   17200    307.39992   -1174.7792    305.90952    518.40973    145.49036    37330.719 
   17300    297.51192   -1186.0373    326.23383    482.85189    490.98063    37330.719 
   17400    305.73958   -1192.0513    312.42789    500.16292    743.17143    37330.719 
   17500    310.52186    -1228.782    291.51857    464.10505    575.20576    37330.719 
   17600    304.80472   -1225.2753    316.04277    466.33487    219.57061    37330.719 
   17700    296.55628   -1216.7444    309.05291    430.65111    378.95744    37330.719 
   17800    308.12725   -1207.5735    312.43374    495.42195    147.22526    37330.719 
   17900    296.17493   -1191.3055     304.4032    449.71931   -38.476004    37330.719 
   18000    309.29181   -1174.1489     308.6095    530.27791    168.06738    37330.719 
   18100    295.84006   -1208.7911    295.88819    422.20742   -123.63571    37330.719 
   18200    302.24391    -1187.163    338.23697    515.08453   -304.78983    37330.719 
   18300    306.33843   -1254.8044    295.06014    422.74464    292.97593    37330.719 
   18400    312.85486   -1218.6435    300.77928    494.03302    421.67514    37330.719 
   18500    307.21068   -1169.3565     325.0768    542.14562    925.79377    37330.719 
   18600    292.28066   -1203.3598    294.69843    410.38563    297.18439    37330.719 
   18700    302.57265   -1206.1599    302.47211     461.8063    281.09596    37330.719 
   18800    301.28766   -1207.8122    305.47755    457.36041   -210.80402    37330.719 
   18900    294.13736   -1194.0865    320.52266    453.86232   -428.24279    37330.719 
   19000     301.7967   -1213.2141    314.30275      463.081     222.8035    37330.719 
   19100    302.58167   -1192.1274    308.28989    481.69737    502.63018    37330.719 
   19200     307.6485    -1176.989    333.22376    544.63598    96.012078    37330.719 
   19300    297.38327   -1180.2864     306.9908    468.77913   -81.883595    37330.719 
   19400     296.5492   -1190.2538    312.95431    461.01112    341.80006    37330.719 
   19500     305.5287   -1217.0307    331.50941    493.31335    262.99769    37330.719 
   19600    313.20524   -1201.1859    321.04542    533.33802    134.64747    37330.719 
   19700    300.14223   -1220.9172    313.98355    447.59212    165.04688    37330.719 
   19800    303.26645   -1198.4167    297.55385    467.76239    180.94499    37330.719 
   19900    299.65269   -1203.2297    338.02201    487.10888    76.523014    37330.719 
   20000    302.95306   -1175.1796    333.81039    525.84168    415.34988    37330.719 
   20100    294.63605   -1170.8513    343.78265    502.60808    260.04316    37330.719 
   20200    300.09227   -1192.6913    332.24691    493.85594    621.36842    37330.719 
   20300    293.83733   -1224.6938    327.53893    428.91731    525.50689    37330.719 
   20400    302.36314   -1189.7621    310.47901     485.2656    422.16888    37330.719 
   20500    289.74886   -1209.5413    333.73397    431.81377    218.02715    37330.719 
   20600    286.51733   -1168.8863    341.08703    465.23806    588.93611    37330.719 
   20700    310.24559   -1200.1531    327.57385    527.54247     904.9019    37330.719 
   20800    295.87785   -1214.6475    322.04133    442.67474    264.60571    37330.719 
   20900    305.58363    -1230.241    318.28208    467.12367     903.0648    37330.719 
   21000    304.95097   -1243.3617    320.54261    453.40828    1247.5095    37330.719 
   21100    302.30021   -1253.3971    314.95363    425.82118    510.27549    37330.719 
   21200    314.01974   -1208.9914    330.73787    538.90075    784.18783    37330.719 
   21300    290.16023   -1216.8008    310.12211    402.79885    383.71031    37330.719 
   21400    294.86641   -1212.3539    323.85698    442.21939    10.964155    37330.719 
   21500    294.18727    -1232.349     309.5508    404.85319    143.45685    37330.719 
   21600    304.82792   -1251.4917    325.73406    449.91445    255.99095    37330.719 
   21700    304.61183   -1207.1538    334.40405    501.94709    237.85366    37330.719 
   21800    295.94867   -1223.8145    323.29348    435.07949   -60.435566    37330.719 
   21900    295.80799   -1251.6801    327.44703    410.73253    308.14858    37330.719 
   22000    305.02088   -1221.4028     335.9768     491.1169    719.03504    37330.719 
   22100    286.78201   -1201.1261    317.68286    410.78863    445.84547    37330.719 
   22200    293.72616   -1219.3297    321.65837    427.89912    270.56445    37330.719 
   22300    289.49519   -1231.7591    344.50867    419.22589    466.35182    37330.719 
   22400    297.40101   -1172.0544    324.67283    494.77323    317.49258    37330.719 
   22500    300.30109   -1177.6078    324.89591    502.53083    166.91215    37330.719 
   22600    313.95902    -1192.863    331.16365    555.18084     108.0485    37330.719 
   22700    293.31989    -1198.959    329.07433    453.85227    585.99791    37330.719 
   22800    308.84489   -1216.1158    339.25944    516.94408    167.68888    37330.719 
   22900    286.77806   -1171.1931    322.57789    445.59883    23.281679    37330.719 
   23000    292.85003   -1190.6681    329.11325    460.06165    -77.22803    37330.719 
   23100    303.60559   -1185.4316    352.76717    537.49137    247.20664    37330.719 
   23200    299.32845   -1172.6818    334.29584    512.46728    156.07799    37330.719 
   23300    299.83306   -1198.4748    320.72693    475.38266    260.86898    37330.719 
   23400    307.46855    -1217.092    333.12541    503.62256    541.77656    37330.719 
   23500    300.29371   -1243.8699    320.88258    432.22213    662.15199    37330.719 
   23600    316.43074   -1225.4588    340.03289    542.60907    487.03654    37330.719 
   23700    292.64448   -1160.5949    348.63515    508.72906    452.22941    37330.719 
   23800    308.65296   -1187.3911    334.82901    540.37219     52.50631    37330.719 
   23900    310.50594   -1210.4102    331.37361    522.26008    179.67014    37330.719 
   24000     307.9043   -1239.7485    345.99516    495.80227    264.23943    37330.719 
   24100    295.78117   -1204.7175    334.38036    464.50749    689.34576    37330.719 
   24200    304.40977   -1182.9412    362.67471    553.51842    858.05713    37330.719 
   24300    297.80603    -1201.352    332.38973    475.02035    723.66386    37330.719 
   24400    290.73603   -1208.2337     329.4853    433.32779    553.48428    37330.719 
   24500    293.65646   -1232.2914    342.04136    435.00586   -236.30486    37330.719 
   24600    306.05565   -1200.4063    320.45503    501.26149   -346.27667    37330.719 
   24700    307.24677   -1219.5189    341.34743    508.41674    79.752756    37330.719 
   24800    306.63805   -1212.1588    328.65687    500.33914   -166.37786    37330.719 
   24900    305.28553   -1168.7895    332.90348     541.8512    188.27841    37330.719 
   25000    302.20932    -1175.923    342.41403    530.34551    155.31544    37330.719 
   25100    298.50913   -1230.4706     332.6796    449.36465    396.68226    37330.719 
   25200    303.09551   -1243.3638    343.62967    468.11973    425.21512    37330.719 
   25300    305.93849   -1210.1299    341.98349    512.53759     329.3829    37330.719 
   25400    300.91523   -1213.3523    347.19248    491.85455    207.18461    37330.719 
   25500    297.69819   -1172.3442    347.22778    518.37956    307.02235    37330.719 
   25600    292.90372    -1226.297    354.01712    449.57897    554.23064    37330.719 
   25700     301.6216   -1230.4292    340.31916    471.09205    457.92504    37330.719 
   25800     302.6026   -1214.3712    345.15029    496.40843    29.550698    37330.719 
   25900    293.65586   -1170.0485    357.88412    513.08873    -271.2172    37330.719 
   26000     297.1552   -1230.8687    361.10437    471.28119 -0.022917997    37330.719 
   26100    296.06802   -1245.0786    342.37056    433.43112    221.62174    37330.719 
   26200    292.27129    -1223.327    354.24628    449.92395    45.060873    37330.719 
   26300    298.51496    -1214.033    347.09101    480.24003    632.15045    37330.719 
   26400    310.61738    -1173.847     353.7245     581.6771    698.89702    37330.719 
   26500    291.61607   -1247.5532    360.34441    428.83893    359.12739    37330.719 
   26600    305.42127   -1243.0291    364.88865    500.20936    937.22803    37330.719 
   26700    305.20757   -1200.4055    336.24111    513.22099    761.70958    37330.719 
   26800    304.46571   -1239.4684    354.76096    489.32995    673.90561    37330.719 
   26900    293.84167   -1211.3131    367.90898    482.68762    558.10958    37330.719 
   27000    308.18577    -1266.116    351.05351    475.76342    335.94544    37330.719 
   27100     297.9788    -1233.369    350.46942    461.86285    672.49127    37330.719 
   27200    304.34154   -1242.5335    330.91585     461.8594    310.07873    37330.719 
   27300    290.26261    -1230.127    355.92703    435.73959   -152.89932    37330.719 
   27400    309.38752   -1252.2034    345.38655    489.43243     -250.096    37330.719 
   27500     300.7718   -1239.7414    365.41603    483.04169   -181.43688    37330.719 
   27600    308.66034   -1267.9546    375.45273     500.4657   -254.56255    37330.719 
   27700    293.68636   -1266.6373     358.8171    417.57062   -300.80601    37330.719 
   27800    297.50178   -1213.8782    349.17893    477.91035   -285.44822    37330.719 
   27900     290.7229   -1269.6152    333.48358    375.88529   -33.002266    37330.719 
   28000    293.61644   -1294.1375    353.32788    384.26565   -18.733797    37330.719 
   28100    293.10869   -1245.5275    356.93399    434.19034    239.55214    37330.719 
   28200    297.60927   -1265.0429    354.69221      432.744    370.18768    37330.719 
   28300    291.24923   -1258.0961    350.87463    407.17071    178.38425    37330.719 
   28400    304.44346   -1273.5976    373.66511    474.00449   -44.337937    37330.719 
   28500    315.66442   -1203.2179     366.7324    588.09106    148.26817    37330.719 
   28600     313.8348   -1278.6749    333.75781     471.4025   -30.048338    37330.719 
   28700    288.84834   -1291.4248     344.5221    356.65442    430.26751    37330.719 
   28800    308.73807   -1253.8639    351.35558    490.81009   -197.27158    37330.719 
   28900    299.60365   -1254.6171    384.93384    482.41192   -349.64412    37330.719 
   29000     301.6226   -1240.3367    349.00567    469.87562   -224.21467    37330.719 
   29100    300.68927   -1263.3917    367.01797     460.6208   -534.95605    37330.719 
   29200     307.4005   -1258.9465     339.7829    468.11841    56.714486    37330.719 
   29300    306.25127   -1258.8655    351.93839    475.16846   -608.82063    37330.719 
   29400    299.57859   -1283.2613    354.75851    423.47937   -711.31213    37330.719 
   29500     302.0951   -1314.3746    353.45011    402.41454    123.72412    37330.719 
   29600    288.56861   -1286.4117    342.51713    358.40008    261.30133    37330.719 
   29700    309.96806    -1247.836    367.54331    518.57655     197.9119    37330.719 
   29800    289.99728   -1293.9343    350.49182    365.29973    253.63463    37330.719 
   29900     297.2338   -1270.8213    372.28942    442.86837    264.50842    37330.719 
   30000    296.58652   -1296.2346    365.50212    407.74658    609.73071    37330.719 
   30100    297.32788   -1279.2499    353.60601    416.18088    157.59431    37330.719 
   30200    302.73365   -1234.9465    354.99352    486.26774    167.41118    37330.719 
   30300    299.30301   -1240.1797    369.46582    480.02461    666.01095    37330.719 
   30400    296.22188   -1246.8873    366.81474    456.76088    138.92057    37330.719 
   30500    306.15841   -1278.8172    355.39901    458.25829     367.3641    37330.719 
   30600    292.91892   -1280.6312    349.85238    391.14858    106.44892    37330.719 
   30700    291.19423   -1252.9905    364.01761     425.1711    -352.2627    37330.719 
   30800    309.09393   -1244.7035    357.12792    507.34881   -742.23148    37330.719 
   30900    299.66669   -1232.7961    373.69873    493.28229   -1002.9858    37330.719 
   31000    293.43268   -1246.1876    358.23908    436.29745   -335.42058    37330.719 
   31100    287.87618   -1271.6584    369.50907    397.02049   -217.50901    37330.719 
   31200    302.70363   -1263.5096    358.60813    461.18377    121.15548    37330.719 
   31300     303.0128   -1215.8761    364.80865    516.41303   -191.74642    37330.719 
   31400     300.0343   -1281.6718    349.23849    421.60541    306.41457    37330.719 
   31500    303.65104   -1289.4534    363.21313    444.12057    228.05815    37330.719 
   31600     292.1784   -1295.8171    367.08927    389.85767   -420.33715    37330.719 
   31700    302.13913   -1267.8141    358.84325    454.56684   -334.00801    37330.719 
   31800    288.38155   -1246.5748    346.59134    401.46699   -325.08491    37330.719 
   31900    289.19265   -1258.7214     361.5071    407.89662   -347.58756    37330.719 
   32000    306.79649   -1215.4161    372.31261    541.45262    206.93085    37330.719 
   32100    299.01261   -1281.4328    370.30607    438.30116    4.6892834    37330.719 
   32200    303.50883   -1262.2079     349.6968    457.20802    596.59977    37330.719 
   32300    311.49886   -1245.3094    363.72082    524.18904    313.43368    37330.719 
   32400    300.93232    -1224.459    361.48834    495.12071    896.16503    37330.719 
   32500    302.47081   -1253.4863    360.77471    472.32295    902.17253    37330.719 
   32600    295.48774   -1246.8668    371.52119    458.17476    873.72177    37330.719 
   32700    284.23841   -1301.1497    366.71673    348.31973    436.94277    37330.719 
   32800    299.15289   -1239.6811    382.49846    492.87834    151.41259    37330.719 
   32900    300.44518   -1266.3063    369.55384    459.14051   -51.208383    37330.719 
   33000    285.07179   -1296.4562    385.20196     375.2595   -439.23032    37330.719 
   33100    288.43511   -1294.4795    371.94649    379.15919    250.35166    37330.719 
   33200    303.33027   -1257.2641    356.63086       468.28    247.73649    37330.719 
   33300     299.0025   -1266.8857    365.31659    447.81317   -417.10305    37330.719 
   33400    305.93714   -1256.3241    377.10166    501.45548   -421.61303    37330.719 
   33500    313.64826   -1257.8372    377.28886    534.92941    -489.8727    37330.719 
   33600    298.57141   -1253.5578    369.88055    463.75949   -469.35095    37330.719 
   33700    301.21654   -1249.9123    397.66181    507.12368    254.95511    37330.719 
   33800    304.19653   -1239.1031    356.13427    489.85382    120.38318    37330.719 
   33900    300.87927   -1247.3341    377.13483    487.65278    209.46384    37330.719 
   34000    304.72309   -1262.4429    372.23416    484.99022    27.966899    37330.719 
   34100    294.97965   -1266.3262    369.26747    434.16865    523.35137    37330.719 
   34200    309.86441    -1254.671    351.87238    495.60287    602.32747    37330.719 
   34300    294.86572   -1248.6453    388.51218    470.58002    165.78336    37330.719 
   34400    304.98238   -1273.1001    369.04488    472.31399   -38.126179    37330.719 
   34500    287.33217   -1264.4923    370.34475     402.5671   -153.82956    37330.719 
   34600    307.09082   -1235.0539    391.09086    541.92138    195.80704    37330.719 
   34700    310.46099   -1294.0344    384.77818     491.8376    200.43474    37330.719 
   34800    300.97048   -1304.1887    378.59515    432.67009    30.899446    37330.719 
   34900    303.07904   -1259.4926    377.88571    486.17254    564.05245    37330.719 
   35000    305.56335   -1287.2295    381.00998    472.77153    706.78163    37330.719 
   35100    304.03458   -1296.9164     370.4538    445.62922     254.0887    37330.719 
   35200     295.3655   -1334.9668     366.3853    364.38723    268.36889    37330.719 
   35300    294.33582    -1265.862    395.49851    457.95824    245.24565    37330.719 
   35400    306.97059   -1272.9123    375.50917    487.93866    437.12947    37330.719 
   35500    294.74021   -1320.9933    368.15719    377.31067    535.19262    37330.719 
   35600     307.6753   -1321.4168    367.01697    434.12232    516.54962    37330.719 
   35700    300.41157   -1295.8225      373.071     432.9898    371.20141    37330.719 
   35800    295.25106    -1306.438    364.75375    390.76799    261.83854    37330.719 
   35900    302.76924   -1332.2733    366.79744    400.90547   -435.78524    37330.719 
   36000    297.30201   -1317.7407    387.17114    411.13842   -249.19778    37330.719 
   36100    299.31422   -1305.6952    351.63166    396.72551   -269.24502    37330.719 
   36200    298.14043   -1265.3018    381.70818    461.89813   -30.938363    37330.719 
   36300     302.7579   -1281.2884    366.73068    451.77243    237.11314    37330.719 
   36400    292.92681   -1295.6345    396.09384    422.42239    406.30516    37330.719 
   36500    291.40444   -1239.1117    399.06333    475.04429    131.45786    37330.719 
   36600    293.82365   -1249.3549    400.34756    477.00311     135.4599    37330.719 
   36700    310.59478   -1235.2878    387.50474    553.91457    550.22394    37330.719 
   36800    291.31587   -1250.3997    378.52336    442.81663   -79.986355    37330.719 
   36900    306.67992   -1289.8618    379.12039     473.2886    749.31142    37330.719 
   37000    300.07978   -1257.9701    378.26726    474.54106    587.52804    37330.719 
   37100    305.90909   -1292.1714    385.15159    473.53155    450.74256    37330.719 
   37200     298.6148   -1345.9923    364.18191    365.82218      691.798    37330.719 
   37300    301.22979   -1337.0144    363.42661    385.84605    128.08948    37330.719 
   37400    299.86313   -1318.1658    400.26322    435.36363   -12.410913    37330.719 
   37500    308.08703    -1311.865    378.89491     457.4102    10.530955    37330.719 
   37600     296.1798   -1309.1209    402.29183    429.81453   -94.676658    37330.719 
   37700    301.67572   -1317.1904    391.51042    435.76637   -482.80969    37330.719 
   37800    295.71504    -1331.502    406.14697    409.19108   -498.43826    37330.719 
   37900     298.9082   -1283.5262     388.5255    453.95598    218.94713    37330.719 
   38000     296.4318   -1276.5145     395.9528    457.21917   -23.096114    37330.719 
   38100    303.55077   -1280.5158    381.58426    470.97678   -55.640204    37330.719 
   38200    296.14013   -1282.4226    374.14898    428.19092    25.295828    37330.719 
   38300    294.89302   -1281.1141    403.24827    452.97056    354.64987    37330.719 
   38400    305.64934   -1254.5672    396.30703    521.11897      65.5408    37330.719 
   38500    306.18259   -1298.7773    380.69174    463.70003    218.16892    37330.719 
   38600     310.5407   -1275.5287    381.14192    507.06678    423.18204    37330.719 
   38700    295.83059   -1307.7487    388.47073    415.78965     511.7656    37330.719 
   38800    302.22247    -1308.858    393.00727    448.06309    226.52701    37330.719 
   38900    299.05727   -1288.9813    400.10605    460.75413    222.23604    37330.719 
   39000    301.07902   -1298.7062    396.95488    457.00215   -301.80763    37330.719 
   39100    285.37665   -1322.5434    389.05409    354.40018   -257.36034    37330.719 
   39200    293.87184   -1298.4628    373.24078    401.00585   -616.14053    37330.719 
   39300    303.89385   -1281.2621    391.65024    481.84478   -698.20103    37330.719 
   39400    300.55313   -1271.6182    393.34123    478.10322   -1026.7696    37330.719 
   39500    294.34914   -1255.0722    409.82732    483.13707   -820.73161    37330.719 
   39600    306.45152   -1286.5828    408.39623    504.81273   -286.67607    37330.719 
   39700    304.73368   -1269.5374    369.46252    475.17189    -82.37653    37330.719 
   39800    306.16843   -1268.3855    399.21365    512.54983    13.112254    37330.719 
   39900    300.67018   -1278.8758    386.62692    464.65957    751.58661    37330.719 
   40000    297.30995   -1296.4367    404.47667    449.78388     603.1012    37330.719 
   40100    290.22529   -1247.5204    397.49367    459.74447    220.04152    37330.719 
   40200    302.63214   -1308.5237    394.42504    451.66399    -220.5452    37330.719 
   40300    302.33359   -1317.5576    378.15874    425.01649    216.56654    37330.719 
   40400    296.96467   -1340.9207    398.81051    398.07544   -179.90308    37330.719 
   40500    308.36477   -1298.3932    382.75521     475.9957    143.11864    37330.719 
   40600    295.80732   -1288.5299    406.63274    453.06542    528.32192    37330.719 
   40700    297.81135   -1281.7014    395.00937    457.31456   -0.7044903    37330.719 
   40800    303.55542   -1311.0074    388.22497    447.14687    482.33862    37330.719 
   40900    306.87894   -1318.1028    393.02709    459.85253    400.24164    37330.719 
   41000    302.45812   -1328.9114    387.50766    423.57358     510.8948    37330.719 
   41100     305.0507   -1304.0238    417.18928    489.84287    324.09191    37330.719 
   41200    289.63574   -1287.3325    407.94867    427.72678    495.83688    37330.719 
   41300    294.77817   -1288.9604    397.25194    438.60961    150.92303    37330.719 
   41400    293.83044   -1306.0849    407.29026    427.24641   -326.15822    37330.719 
   41500    301.40374     -1291.79    374.68151    443.11041   -121.10915    37330.719 
   41600    291.20688   -1345.5951    390.30705    358.91303   -315.24367    37330.719 
   41700    293.20172   -1341.3559    388.48095    370.32871    119.82905    37330.719 
   41800    297.39334   -1308.9661    399.29462    432.44872   -198.29815    37330.719 
   41900    287.11005   -1292.6408    385.34739    388.41886   -195.49668    37330.719 
   42000    305.83423   -1306.9672    405.75837     479.0047    247.49742    37330.719 
   42100    306.40274   -1281.6301    416.01188    517.16093    42.189284    37330.719 
   42200    302.53997   -1280.0924    398.03509    483.28933   -97.893569    37330.719 
   42300    302.25552    -1285.788    389.74367    468.01866   -236.26582    37330.719 
   42400    300.40176   -1301.8525    414.21812    468.06267   -545.23254    37330.719 
   42500    291.47399   -1339.9129    381.30202    356.79562   -90.774005    37330.719 
   42600    301.15533   -1281.1716    388.36929    466.29555   -929.37425    37330.719 
   42700     299.7188   -1327.0791    387.70928    413.24503   -810.64139    37330.719 
   42800    298.70358   -1321.1952    385.96216    412.80026   -183.57637    37330.719 
   42900     293.4961   -1255.4844    404.97884    474.02664    106.00564    37330.719 
   43000    291.93958   -1286.1598    414.10642    445.45432   -18.903907    37330.719 
   43100     302.1638   -1281.9259    403.46467    485.18783    356.11722    37330.719 
   43200    294.14114   -1317.1618    394.40501    404.68642    508.29584    37330.719 
   43300    286.87596   -1310.0949    397.44992    382.01089    -119.6061    37330.719 
   43400    307.33929   -1293.6228    410.75624    504.13914   -39.493884    37330.719 
   43500    307.52917   -1299.6384    386.52563    474.74991    553.71483    37330.719 
   43600    290.40752   -1265.5408    418.45744    463.51027    317.33662    37330.719 
   43700    301.61186   -1283.1868    380.20458    458.17593    298.21872    37330.719 
   43800    292.25636   -1278.1403    411.68436     452.4814    497.05776    37330.719 
   43900    303.59876   -1280.8244    400.21451      489.515    360.01559    37330.719 
   44000    294.24638   -1305.0245    403.30028    426.19387    65.152021    37330.719 
   44100    298.95989   -1295.9889    386.30046     439.5015   -372.04693    37330.719 
   44200    302.29533   -1278.3052    395.70913    481.64651   -336.78771    37330.719 
   44300     298.2262   -1296.0918    425.54615     475.3332   -615.68052    37330.719 
   44400    301.88845   -1388.0582    401.94513    376.29335   -515.85537    37330.719 
   44500    297.19884   -1311.9712    388.20915    417.48033   -188.06206    37330.719 
   44600    297.90331    -1336.522    398.52081     406.4205   -918.44262    37330.719 
   44700    296.03488   -1330.3506    410.29666    415.93556   -477.38792    37330.719 
   44800    306.87206   -1358.8873    408.90993    434.91978   -159.49563    37330.719 
   44900    301.94848   -1358.9904    415.09791    418.78483    291.68037    37330.719 
   45000    313.68177   -1311.1445    405.63647    510.12101   -185.66412    37330.719 
   45100    294.72257   -1345.5781    401.01474    385.50376   -149.94463    37330.719 
   45200    296.63213   -1312.8845    389.45291    415.25334    373.35469    37330.719 
   45300    296.79577   -1329.8495    405.78097    415.35485    468.55816    37330.719 
   45400    294.35777   -1334.8638    405.08736    398.64435    57.690874    37330.719 
   45500    307.78727    -1308.395     414.3498    494.98229    453.06439    37330.719 
   45600    297.91643   -1342.4952    401.73401    403.71973    778.50385    37330.719 
   45700    304.26596   -1357.3062     408.3184    424.14813    704.06262    37330.719 
   45800    303.40997   -1335.7608    421.30569    454.81788    719.27792    37330.719 
   45900     292.9428   -1337.3607    405.03459    389.70899    506.56597    37330.719 
   46000    301.25726   -1330.1491    403.27854    432.68727    514.46408    37330.719 
   46100    303.00732   -1333.5068    422.42707    456.37611    322.65529    37330.719 
   46200    301.25018   -1322.5427    385.48383    422.46705    700.98168    37330.719 
   46300    299.42758   -1294.1636     415.3472    472.48419    485.14572    37330.719 
   46400     291.4549   -1281.5776    418.91083    452.65359    405.00122    37330.719 
   46500    306.55955   -1340.9994    410.36992    452.85731    576.41523    37330.719 
   46600    316.21604   -1333.4865    413.80991    507.38942    25.617146    37330.719 
   46700     301.6223    -1314.544    410.01561    456.67682    520.52802    37330.719 
   46800    304.24767   -1366.1363    384.26187    391.17902   -195.11048    37330.719 
   46900    294.47781   -1350.9687    383.89735     361.8912   -75.703034    37330.719 
   47000    290.27228   -1338.3994    399.53637    371.12018   -328.77765    37330.719 
   47100    308.66371   -1339.1312    395.40768    449.25929   -203.59146    37330.719 
   47200    297.02318   -1308.1547    417.71066    450.00564   -241.96315    37330.719 
   47300    312.95228   -1303.4578    410.64017    519.51923   -225.14579    37330.719 
   47400    300.57478   -1344.2465    420.59756    432.82891    221.95981    37330.719 
   47500    299.47299   -1355.3131    403.38273    399.57515    40.574597    37330.719 
   47600    305.81136   -1375.7988    393.15962    397.47114    7.4598968    37330.719 
   47700    294.99023   -1383.2905    406.71439    354.69902     260.5089    37330.719 
   47800    287.06156   -1353.6922    416.15435    357.95556   -48.308706    37330.719 
   47900    301.46651   -1334.3213    408.77675    434.95764    428.44285    37330.719 
   48000    298.96957   -1356.0043    362.12744    355.35677   -235.94121    37330.719 
   48100     292.2735   -1346.3095    406.07921    378.78436   -38.139225    37330.719 
   48200    300.59856   -1377.4083    394.94461    374.12156    102.72314    37330.719 
   48300    307.33785   -1372.5104    392.42291    406.91178    275.60608    37330.719 
   48400    303.57939   -1368.5913    402.71914    404.16539   -180.28449    37330.719 
   48500    304.43789   -1362.1104    412.73062    424.53204    -116.3661    37330.719 
   48600    304.01217   -1337.9405     381.8538    415.90398   -308.75287    37330.719 
   48700    290.01106    -1315.579    413.31972    406.54506   -189.86858    37330.719 
   48800    300.62045   -1282.6091    401.34551    475.42034   -505.74448    37330.719 
   48900    300.42955    -1327.813    399.92585    427.93531    -91.63419    37330.719 
   49000    303.14504   -1348.1109    419.49089    439.45729    520.73453    37330.719 
   49100    308.51267    -1358.401    415.16483    449.06499    517.28213    37330.719 
   49200    292.03379   -1394.3522    424.58053    348.16115    415.85019    37330.719 
   49300    302.83236   -1315.4916    403.76815    454.94275    353.30738    37330.719 
   49400    299.45753   -1345.6596    403.17095    408.94719    470.79106    37330.719 
   49500    301.87924   -1327.1647    410.54406    445.74422    759.37449    37330.719 
   49600    309.71099   -1330.6092    405.58528    472.68518    598.63743    37330.719 
   49700    295.24496   -1395.9917    414.66302    351.09599     220.5519    37330.719 
   49800    293.39844   -1389.9948    417.52097    351.61762    380.85119    37330.719 
   49900     303.6856   -1381.0855    382.39553     371.8269    593.01866    37330.719 
   50000    309.22505   -1346.9281    408.19087     456.7789    506.06662    37330.719 
   50100      299.613   -1411.1332     412.5873    353.59152    313.28447    37330.719 
   50200    293.65131   -1385.2711    402.30141    342.26291   -15.669781    37330.719 
   50300    296.29807    -1351.181    424.10867    410.10493     77.50373    37330.719 
   50400    311.99526   -1379.4653    406.46853    435.02112   -74.793432    37330.719 
   50500    310.08902   -1370.1158    404.26408    433.56344   -733.44445    37330.719 
   50600     303.1037   -1329.3084     403.5593     442.1417   -57.447277    37330.719 
   50700    301.50792   -1333.9406    402.14993    428.89841   -100.84203    37330.719 
   50800    305.30776   -1370.6681    414.13921    421.30862   -176.74015    37330.719 
   50900    292.75874   -1321.0314    405.68535    405.85841   -28.969707    37330.719 
   51000    302.67033   -1338.2458    406.90818    434.59739    396.75325    37330.719 
   51100    295.38972   -1299.5108    416.66295    450.23012    137.81321    37330.719 
   51200     298.1026   -1334.8508    402.10666    412.57686    272.98669    37330.719 
   51300    298.11435   -1291.8989    403.93889     457.4141    187.31996    37330.719 
   51400    297.65897   -1284.7446    421.60258    480.17694    147.52676    37330.719 
   51500    301.69334   -1314.4967    416.67404    463.70323   -203.55181    37330.719 
   51600    298.13187   -1330.7423    393.82323    408.53408    15.501012    37330.719 
   51700    298.71469   -1333.8479    411.74693    425.98243   -150.35232    37330.719 
   51800    299.08239   -1312.6156    417.00894    454.13616    -188.0611    37330.719 
   51900    292.49113   -1337.0526    394.41125    377.35548   -195.70668    37330.719 
   52000    307.57387   -1281.9796     415.1065    521.19134   -285.45528    37330.719 
   52100    302.08397    -1319.303    418.26907    462.25486   -514.28668    37330.719 
   52200    293.81573   -1345.1399    395.92007    376.75485   -338.41076    37330.719 
   52300    309.53761   -1325.8604    403.49071    474.55693    342.74084    37330.719 
   52400    302.16668   -1371.1636    393.31538    385.81379    -205.3181    37330.719 
   52500    299.91265   -1398.4336     398.6091    353.66521   -390.50635    37330.719 
   52600    304.74691   -1408.0312    428.13492    395.41013   -699.60968    37330.719 
   52700    304.49708   -1319.2831    415.53203    470.42789   -470.79273    37330.719 
   52800    300.68956   -1368.5791    437.73073    426.14751   -312.55831    37330.719 
   52900     308.6623   -1364.5593    422.23767     450.6548    70.180354    37330.719 
   53000      300.184   -1357.9744    427.21855    423.95851    69.164058    37330.719 
   53100    308.83026   -1358.2188    414.64836    450.16402    495.00884    37330.719 
   53200    305.25622   -1339.9162    416.10947    453.79823    543.94639    37330.719 
   53300    303.10644   -1382.2537    430.60844    416.25789    339.75503    37330.719 
   53400    306.52414   -1369.0386    410.08376    424.37215   -6.1489491    37330.719 
   53500    309.33684   -1367.1304    410.37714    439.26734      62.7801    37330.719 
   53600    297.31918   -1342.6275    400.87156    400.02956    -82.84466    37330.719 
   53700    296.72816   -1310.8696    404.58699    432.83564   -6.0133322    37330.719 
   53800    302.92433   -1343.9391    424.53691    447.67904    26.145563    37330.719 
   53900    308.22292   -1343.7617    415.04195    462.27372    403.55867    37330.719 
   54000     306.6988   -1319.6713    427.89603    492.34002    448.35601    37330.719 
   54100    302.28589   -1330.0396    428.62522    462.78562     179.5653    37330.719 
   54200    297.51399   -1335.6098    413.91642    420.97132   -41.018096    37330.719 
   54300    303.51832   -1324.5603    385.80667    431.00832    396.12905    37330.719 
   54400    305.73566   -1344.4497    415.73764    451.05661    282.67298    37330.719 
   54500    306.59469   -1314.0583    420.80451    490.39161     389.5201    37330.719 
   54600    302.15224   -1377.5733    414.67087    400.69449    127.17311    37330.719 
   54700    295.20397   -1345.2658    424.46577    411.43971   -894.17805    37330.719 
   54800    302.41872    -1373.463    445.27046    436.60693   -81.707652    37330.719 
   54900    298.39416   -1375.0341    412.27094    383.87371    9.3424107    37330.719 
   55000    290.35988   -1304.7405    422.22009    427.85814       -529.3    37330.719 
   55100    300.29976   -1368.2733    411.33047    398.29389   -331.21933    37330.719 
   55200    296.11248   -1335.5422    432.76856    433.56614   -93.573133    37330.719 
   55300    298.17627   -1365.9416    415.72226    395.43425    333.58974    37330.719 
   55400    311.57918   -1366.2555    396.66414    436.54879   -145.11326    37330.719 
   55500    304.38915   -1362.0921     409.6634    421.26325    363.64914    37330.719 
   55600    305.05787   -1371.0111    407.76642     413.4651    34.536786    37330.719 
   55700    306.11183   -1364.6998    413.07636    429.84283    64.413805    37330.719 
   55800    294.57735   -1354.6254    435.28651    410.07296    175.66313    37330.719 
   55900    283.55465   -1339.8439    431.29594    371.11901   -235.05843    37330.719 
   56000    298.03623   -1339.3941    422.38369    428.01111   -242.46299    37330.719 
   56100    300.54367   -1372.1335    419.25522    403.45923    7.1285705    37330.719 
   56200    304.95044   -1402.3245    408.72922    382.62973   -77.742331    37330.719 
   56300    297.96602   -1316.8774    432.07819    459.90544     80.58752    37330.719 
   56400    308.79722   -1310.4921    459.49159    542.58474    81.581231    37330.719 
   56500    298.19321   -1334.3918    405.32269     416.6609    230.24002    37330.719 
   56600    301.64806   -1354.3262    421.35538    428.35067    432.18856    37330.719 
   56700    295.66605   -1378.0049    419.14829    375.46848    357.65023    37330.719 
   56800    296.18511   -1354.8588    422.76817    404.57692    125.55363    37330.719 
   56900     289.0264   -1359.8077    430.24312    374.79607    -676.6529    37330.719 
   57000    304.58812   -1338.3653    405.89906    442.12364    53.008673    37330.719 
   57100    295.26251   -1334.6361    428.04809    425.91593   -31.921552    37330.719 
   57200    309.39213   -1370.4584    412.93173    438.74337   -314.31191    37330.719 
   57300    303.53417   -1345.2497    435.27458    459.85831   -232.25083    37330.719 
   57400    290.64613   -1393.0886    428.27304    346.85482   -47.293963    37330.719 
   57500    292.26933   -1368.0311    420.33709    371.30187    372.46601    37330.719 
   57600     305.4681   -1416.3998    426.31227    388.47362     489.1306    37330.719 
   57700    303.70489   -1317.2426    411.06143    464.42275    486.17573    37330.719 
   57800    295.51715   -1371.1187     413.9239    376.45829    488.18983    37330.719 
   57900    292.23355   -1370.3476    428.05435    376.54113    96.869694    37330.719 
   58000    309.24531   -1347.2288    427.05732    475.43599    1054.3965    37330.719 
   58100    294.80063   -1392.6011    401.53374    339.35207    629.03814    37330.719 
   58200    301.04838   -1355.7545     403.1331    405.99375     633.0277    37330.719 
   58300    302.84802   -1356.3182    437.34811     447.7668    140.94475    37330.719 
   58400    299.25644   -1366.8023     430.6811    414.40702    504.52283    37330.719 
   58500    308.25708   -1366.5567    423.54988    448.14087   -300.75144    37330.719 
   58600     304.7027   -1338.0941    415.53535    452.54824   -98.858665    37330.719 
   58700    289.02396   -1334.8295    435.60365    405.12382   -285.20845    37330.719 
   58800    303.67101     -1326.78    436.87347    480.54445   -39.414713    37330.719 
   58900    301.49719   -1379.9841     429.6275    410.28403   -117.83568    37330.719 
   59000    297.69301   -1356.6387    432.80883    419.64276   -683.44059    37330.719 
   59100    295.85625   -1398.1487    392.59588    329.63061   -334.03005    37330.719 
   59200    289.49129   -1372.1598    427.46162    361.76048   -557.51695    37330.719 
   59300    300.12092   -1348.8144    444.94168    450.55693   -298.95918    37330.719 
   59400     305.8359   -1407.2809    424.69365    397.63377    -57.12621    37330.719 
   59500    291.17627   -1387.7198    423.81797    350.16109   -56.622959    37330.719 
   59600    305.88855    -1397.823    405.95623    388.59184    129.43543    37330.719 
   59700    302.36978   -1373.9111    426.32194    416.98947    119.01882    37330.719 
   59800     293.2651   -1373.5557    445.97832     395.9123     55.69939    37330.719 
   59900    291.39313    -1370.847    407.89735    352.09194     173.0702    37330.719 
   60000    297.88973   -1345.9737    419.74793    418.13465   -70.386115    37330.719 
   60100    303.60778   -1403.4766    402.32697    369.01595    375.54046    37330.719 
   60200    294.72697   -1433.7839    414.04596    310.34905    420.01761    37330.719 
   60300    302.54638   -1400.0071    425.44666    390.81519    171.39775    37330.719 
   60400    307.21282   -1414.1178    440.86336    413.18054    440.04489    37330.719 
   60500    310.42696   -1382.6566    421.02872    439.31234    328.85307    37330.719 
   60600    295.14623   -1308.9942    456.66146     479.6464    267.44489    37330.719 
   60700     300.5358   -1316.9557    416.41525    455.76149   -75.369723    37330.719 
   60800     305.8619   -1362.2599    427.94963    446.02805   -78.924951    37330.719 
   60900    307.25534   -1366.5736    449.73946    469.79279   -389.69046    37330.719 
   61000    286.64383   -1365.8772    435.71949     363.4505    217.27933    37330.719 
   61100     305.5197   -1398.0491     431.4953    412.24024    343.92476    37330.719 
   61200    294.83813   -1364.9665    454.75924    420.38139    70.799847    37330.719 
   61300    298.32999   -1401.3267    419.54591    364.56648     142.5995    37330.719 
   61400      289.506   -1391.5122    427.27238     342.2853    53.973429    37330.719 
   61500     297.5483   -1362.3018    442.31248    422.83025     202.8795    37330.719 
   61600    297.54582   -1346.4983    411.59703    407.90704    368.96751    37330.719 
   61700    288.98286   -1351.2574    431.54168    384.44849    88.074316    37330.719 
   61800    302.56146   -1327.6403    452.18109    489.98445    61.066936    37330.719 
   61900    294.83898   -1348.5179    414.84681    396.92147    175.36726    37330.719 
   62000    296.86406   -1370.9487    438.22729    407.01017     603.8165    37330.719 
   62100    293.07988   -1368.4069     431.4585    385.70541    154.10837    37330.719 
   62200    301.95079   -1391.0986    436.61609    408.20518    154.21369    37330.719 
   62300    301.54397   -1331.4208    452.31507    481.74603    64.884279    37330.719 
   62400    292.77136   -1353.4474    445.73041    413.54445   -11.468377    37330.719 
   62500    293.53268   -1371.1054    437.56919    391.16109    -218.8468    37330.719 
   62600    299.53945   -1352.6611     426.8276    425.97199   -512.57621    37330.719 
   62700    299.43299    -1363.209    471.23775    459.35379    288.01012    37330.719 
   62800    302.94609    -1405.835    431.16049    392.50498    337.72757    37330.719 
   62900    295.54372   -1385.4612    455.09722    403.40896    290.20524    37330.719 
   63000    304.52177    -1376.544    434.89269    432.63909    128.76877    37330.719 
   63100    292.52657   -1369.8298    448.92158    399.24854    58.425106    37330.719 
   63200    292.82778   -1326.1279    435.96956    431.35779   -67.181096    37330.719 
   63300    297.97434    -1302.475     440.8101    483.07735   -77.263448    37330.719 
   63400    290.52055   -1343.4261    472.15622    439.83382   -19.734329    37330.719 
   63500    293.88155   -1321.1814    445.30071    450.39095    37.884898    37330.719 
   63600     302.2795   -1365.4735    428.05684    426.75457   -252.11428    37330.719 
   63700    308.97155   -1335.5933     434.7849    493.56364    262.80553    37330.719 
   63800    289.47555   -1347.9071    441.42967    399.91026   -549.90569    37330.719 
   63900    308.53061   -1388.4621    423.78595    427.70596    379.04302    37330.719 
   64000    299.45497   -1381.7416    454.80475     424.4874    108.07759    37330.719 
   64100    292.31572   -1376.8277    444.79774    387.17516   -329.31731    37330.719 
   64200    307.62831   -1370.4218    429.59094    447.47927    40.391145    37330.719 
   64300    299.36808   -1314.4186    452.96149    489.57496    71.723172    37330.719 
   64400    303.90716   -1369.3883    426.02657    428.15498   -199.75922    37330.719 
   64500    304.79339   -1391.4599    414.51132    398.56771    -324.4958    37330.719 
   64600    288.69244   -1371.7161    443.17133    374.30875   -746.97366    37330.719 
   64700    295.43302   -1373.7783    430.85742    390.35253    37.151903    37330.719 
   64800    303.11727   -1388.4905    442.19831    421.65979    432.03753    37330.719 
   64900     294.7574   -1381.9255    445.00586    393.30468   -99.095472    37330.719 
   65000    302.46845   -1433.9417    458.07768    389.15992   -131.36905    37330.719 
   65100    311.88847   -1397.8297    426.28651    435.99277   -84.030393    37330.719 
   65200    302.22814   -1381.4937    423.48319    405.92884    319.22909    37330.719 
   65300    303.83795   -1380.7293    449.32802    439.80312    303.50111    37330.719 
   65400    299.17769   -1420.7527    411.47293     340.8931    248.19424    37330.719 
   65500    297.22327   -1383.1929    406.85004     365.0098   -256.60334    37330.719 
   65600    295.84798   -1357.5945    421.06182    398.61339     431.6894    37330.719 
   65700    300.02696   -1408.6046    423.60053    369.00157    183.47472    37330.719 
   65800     298.1997    -1399.865    445.78067    391.67497    98.361709    37330.719 
   65900    298.99754   -1395.3075     449.9328    403.98517    179.87021    37330.719 
   66000    299.24141   -1387.5911     437.4738    400.34313    201.28224    37330.719 
   66100    303.76754   -1402.4218    454.05161    422.51645    115.73593    37330.719 
   66200    296.70044   -1403.1008    447.44379    383.33614    486.00644    37330.719 
   66300    304.39193   -1385.1295     460.8218    449.39673   -214.73926    37330.719 
   66400    296.43374   -1380.0707    435.51393    393.23284   -251.92368    37330.719 
   66500    307.34785   -1372.1431    436.88888    451.79013    109.19558    37330.719 
   66600    297.39255   -1343.3408    438.66948    437.44536    49.211932    37330.719 
   66700    298.10412   -1386.8013    441.05661    399.58325    203.96134    37330.719 
   66800    300.64571   -1375.5437    440.85854     422.1128    363.65806    37330.719 
   66900     295.9467   -1402.1073    457.66877    391.15308    486.37513    37330.719 
   67000    303.29807   -1370.8372    474.54342    472.47416 -0.090122688    37330.719 
   67100    297.09307   -1280.3254    471.65231      532.092   -55.610619    37330.719 
   67200    300.10806   -1363.9665    433.70081    424.10595    94.189765    37330.719 
   67300    302.14243   -1361.3434    483.41862    485.62785   -436.26547    37330.719 
   67400    305.96577   -1354.8585    459.50745    485.45607   -291.67082    37330.719 
   67500    296.18494   -1355.6658     449.7923    430.79328    531.46207    37330.719 
   67600    301.02155   -1313.5867      451.038    495.94543    163.26691    37330.719 
   67700    299.55701   -1310.5566    452.90522    494.23335   -118.46292    37330.719 
   67800    312.70035   -1378.8752    434.76416    467.08884    261.80226    37330.719 
   67900    300.59078   -1377.0768    461.65395    441.12725     34.55709    37330.719 
   68000    294.45125   -1366.7473    440.36905    402.46448    70.699239    37330.719 
   68100    305.60087   -1351.5935    464.95857    492.52544    270.02685    37330.719 
   68200    294.38089   -1404.9945    438.49307     362.0237     459.0847    37330.719 
   68300    300.49479   -1397.2347    443.34466     402.2269    682.88492    37330.719 
   68400    298.21058   -1412.2248    442.97253    376.55609    249.43964    37330.719 
   68500    301.96721     -1410.55    446.69573    398.90762    186.84527    37330.719 
   68600    290.05775   -1400.7417    443.75904    352.03242    65.609608    37330.719 
   68700    300.14725   -1408.2116    439.29919    385.63609    407.19798    37330.719 
   68800     310.8283   -1378.1519    444.21551    468.81507    303.36958    37330.719 
   68900     299.6029   -1353.3249    427.84018    426.60713   -316.59617    37330.719 
   69000    305.22913    -1374.852     449.0981     451.7288   -488.42797    37330.719 
   69100    318.50227   -1388.0335    453.22783    502.57803    375.23248    37330.719 
   69200    308.90984   -1373.9507    437.71007    457.85289    184.86573    37330.719 
   69300    307.94634   -1391.5361     468.9554    467.16467     45.91383    37330.719 
   69400     295.0986   -1378.8199    445.82446     398.7687   -214.96698    37330.719 
   69500      302.869   -1377.3533    450.05358    439.53189   -387.73631    37330.719 
   69600    296.39858   -1391.6477    443.94638    389.92956   -448.99703    37330.719 
   69700     305.3232   -1361.5694    447.33883    463.67664   -50.480713    37330.719 
   69800    304.67638   -1350.7513    474.37547     498.6124     77.73581    37330.719 
   69900    303.62932   -1367.2237    465.52091    468.56007     17.27318    37330.719 
   70000    306.10512   -1333.0646    459.10765    507.47905    277.30589    37330.719 
   70100    310.27025   -1399.3493     452.8934    453.77714    644.51628    37330.719 
   70200    297.46456   -1368.6146    476.82421    450.65119    486.65528    37330.719 
   70300    300.55753   -1392.5243    449.82902    413.70476    467.23785    37330.719 
   70400    294.08182   -1424.0554    475.50564    378.62577    -381.7362    37330.719 
   70500    304.73962   -1372.3065     458.4779    461.44496    206.44413    37330.719 
   70600    292.11969   -1381.6234     467.2141    403.91123    -46.06916    37330.719 
   70700    298.62226   -1392.3678    464.16172    419.46014    233.69086    37330.719 
   70800    294.15102   -1414.7089    453.32386    366.10271   -385.69266    37330.719 
   70900    301.11499   -1406.7129     443.7578    395.96068   -156.67446    37330.719 
   71000     299.7675   -1443.4267    437.53861    346.94664    464.81294    37330.719 
   71100    299.55769   -1392.8089     445.1717    404.25054   -133.73204    37330.719 
   71200    305.54549   -1415.7874    472.82849    435.95154    206.72596    37330.719 
   71300     291.4716   -1411.8475    480.59553    384.14375    -245.7195    37330.719 
   71400    299.11501   -1369.8813    464.84076    444.84948   -137.62298    37330.719 
   71500    296.51733   -1415.4104    466.49475    389.25122   -346.76746    37330.719 
   71600    281.16131   -1382.7848     475.1789    361.26007   -277.10784    37330.719 
   71700    300.88124   -1435.9256    446.19527    368.13064   -38.846763    37330.719 
   71800    288.93086   -1378.7206     470.0896    395.29843   -222.74547    37330.719 
   71900    304.02243   -1395.2067    476.84329    453.67358   -185.83538    37330.719 
   72000    307.71007   -1406.3737     468.1642    450.46956   -28.688752    37330.719 
   72100    306.64432   -1390.8808    458.99676    451.98538    240.52053    37330.719 
   72200    295.01755   -1397.1231    467.10025    401.37552   -302.95304    37330.719 
   72300    313.80909   -1386.1512    468.91372    498.96612   -299.43565    37330.719 
   72400    298.73457   -1361.5761    445.29357    431.89058    286.21338    37330.719 
   72500    300.48493   -1391.6864    464.18877    428.57478    421.89535    37330.719 
   72600    298.61035   -1374.9029    475.59931     448.3089   -111.96874    37330.719 
   72700    294.22337   -1381.5324    472.45237    418.73428    176.66562    37330.719 
   72800    299.38498   -1368.9837    476.16361    458.28833    154.16252    37330.719 
   72900    296.96504   -1369.0657    458.14104    429.26263   -259.66752    37330.719 
   73000    292.29363   -1349.4539     471.1423    440.79385   -499.98653    37330.719 
   73100    302.73482   -1372.7575    470.12441    463.59291   -700.53958    37330.719 
   73200    297.78519   -1394.4588    498.54569    447.97548   -466.92811    37330.719 
   73300     300.6075   -1419.8504    455.98168    392.75688   -491.40577    37330.719 
   73400    295.73466   -1453.6331    437.60957    318.61113   -433.32832    37330.719 
   73500    301.93631   -1427.3111      475.948    411.25929    290.20705    37330.719 
   73600    301.12247   -1449.9775    460.75504    369.72715    373.84455    37330.719 
   73700    292.75739   -1454.1769    435.17666    302.19816    310.33128    37330.719 
   73800    295.59683   -1471.0919     465.8743    328.79511    847.83977    37330.719 
   73900    306.10941   -1451.4683     481.9313    411.91835    571.20919    37330.719 
   74000    303.40817   -1463.2386    498.90235    404.92851     516.4335    37330.719 
   74100    283.09596   -1430.9004    494.48644    341.18291    551.13421    37330.719 
   74200     295.0068   -1446.4491     466.7207    351.62153    1032.4921    37330.719 
   74300    297.11953    -1455.688    455.38987    340.58636     970.8409    37330.719 
   74400    296.78275   -1452.0224    462.17654    349.51874     827.9788    37330.719 
   74500    297.20702   -1466.6255    469.09361    343.74745    92.077384    37330.719 
   74600    311.82591    -1453.299    446.07204    400.02664   -156.99524    37330.719 
   74700     296.3933   -1424.2727    459.06342    372.39785   -3.7332586    37330.719 
   74800    290.31589   -1427.6718    444.91357    327.42189    159.57279    37330.719 
   74900    293.74938   -1446.7373    450.01853    328.95642   -576.34194    37330.719 
   75000    302.23271   -1455.4495    454.50304     363.0136   -56.635189    37330.719 
   75100    292.68626   -1485.6986    446.00357    281.18237   -399.58199    37330.719 
   75200    310.23958   -1460.6166     463.5897    403.06767   -122.04387    37330.719 
   75300    302.63526   -1416.3087    482.97075    432.43876   -336.26298    37330.719 
   75400    299.91047   -1438.8709    460.67767    375.28663    178.98493    37330.719 
   75500    335.74785   -1459.5879    452.02721    507.65134   0.32738953    37330.719 
   75600    303.47433    -1456.422    444.16713    357.30849    461.16079    37330.719 
   75700    307.85441   -1428.5663     458.5469    419.31107    483.39127    37330.719 
   75800    311.13802   -1454.9262    457.87081    407.09383    -66.47867    37330.719 
   75900    305.98262   -1378.2541    468.25802    470.88713   -100.55708    37330.719 
   76000    290.76169   -1366.9835    456.91627    402.12471    374.36034    37330.719 
   76100    308.20843   -1371.2277    454.36482    474.06519    63.981562    37330.719 
   76200    304.29096   -1399.3085    481.91236     455.8526   -67.977404    37330.719 
   76300    308.38353   -1411.9267    462.30895    442.10053   -57.452017    37330.719 
   76400    299.56765   -1407.9924    479.73643    423.67674   -218.53959    37330.719 
   76500    305.20717   -1396.5129    473.85122    454.72196    325.03348    37330.719 
   76600    305.61183   -1436.0751    458.45625    401.59096     212.9091    37330.719 
   76700    299.21598   -1437.2529    483.76968    396.86245   -204.87909    37330.719 
   76800    300.41994   -1451.7418    478.84526    382.88255    102.44842    37330.719 
   76900     290.1236   -1442.6053     457.1816    323.88859   -308.61888    37330.719 
   77000    300.95608   -1394.1882    479.97675    443.98723   -260.97194    37330.719 
   77100    308.26825   -1431.9968    456.59686    415.79812   -633.17143    37330.719 
   77200    293.56766   -1402.3457    465.60691    388.11629   -619.45875    37330.719 
   77300    302.06762   -1428.6298    451.42127     386.0064   -400.93214    37330.719 
   77400    304.79625   -1425.7248    471.34364    421.14801   -496.74545    37330.719 
   77500    297.40917   -1423.3739    463.52622    382.34392   -211.72794    37330.719 
   77600    297.24825   -1422.2629    468.68916    387.89169   -641.56757    37330.719 
   77700    301.11176   -1382.5686    488.90385    465.23645   -540.54492    37330.719 
   77800    297.16756   -1371.0893    459.19467     429.2066   -84.448509    37330.719 
   77900    311.86974   -1352.7433    488.01153    542.71966   -101.91743    37330.719 
   78000    306.62921   -1348.7168    459.18743    494.27187   -174.72962    37330.719 
   78100    305.06033   -1424.1231    443.12655    395.72434   -484.30545    37330.719 
   78200    312.40042   -1455.2265    459.72008    414.33998    21.238045    37330.719 
   78300    291.12546   -1435.0679    475.13458     353.9003    20.242205    37330.719 
   78400    296.95223   -1432.9876    472.16775    379.30962   -364.46554    37330.719 
   78500    309.75909   -1479.4368    442.52136    361.01076    440.82735    37330.719 
   78600    308.70493   -1418.5297    456.82033    431.45947    66.814309    37330.719 
   78700    294.35256   -1412.3647    470.13627    386.16891    129.07156    37330.719 
   78800     303.2253   -1412.5216    475.65605    431.57394    20.387095    37330.719 
   78900    295.33367    -1393.356    470.78541    410.25441     216.1756    37330.719 
   79000     294.0155   -1433.3482    490.47971    384.00771    243.50728    37330.719 
   79100    305.87546    -1403.443    483.65484    460.61143    69.347921    37330.719 
   79200    300.27266   -1458.8653    455.80481    352.05391   -362.29906    37330.719 
   79300     293.0401   -1456.5897    464.82964    330.71426    49.867282    37330.719 
   79400    298.04921    -1445.454    467.15329    366.77937   -377.90585    37330.719 
   79500    306.47783   -1460.0841     458.7651    381.79898   -203.32605    37330.719 
   79600    313.08213   -1467.3934    455.23956    400.76903   -149.46629    37330.719 
   79700    301.39215   -1498.4704    472.58127    334.27746   -74.806677    37330.719 
   79800    297.67985   -1503.4348    473.22325    313.20162    186.51574    37330.719 
   79900    304.43074     -1489.84    486.13508    370.17466   -107.51237    37330.719 
   80000    295.53696   -1474.1831    451.85299    311.41235   -228.58497    37330.719 
   80100    302.54884   -1412.0635    474.53792    427.86108    70.632338    37330.719 
   80200    311.61273   -1438.0246    471.67894    439.94591    52.857827    37330.719 
   80300    297.58765   -1480.4273    446.31087    308.88066    8.5763752    37330.719 
   80400     293.5189   -1493.2665    425.09893    256.46746    492.12101    37330.719 
   80500    295.63994   -1513.0994    453.07456    274.18234    455.57734    37330.719 
   80600    304.56284   -1517.2168    470.14471    327.40373    712.33618    37330.719 
   80700    288.41716   -1497.9231    450.89295    254.58106    145.28683    37330.719 
   80800    304.46623   -1485.4403    442.75237     331.3519     274.7231    37330.719 
   80900    308.68389   -1521.6914    465.45271    336.83516    473.40678    37330.719 
   81000    295.07418   -1516.9406    449.17947    263.89288    279.80375    37330.719 
   81100    298.60315   -1520.6034    444.33286    271.30945    269.84423    37330.719 
   81200    297.22674   -1554.9319     455.4638    241.90024    213.96327    37330.719 
   81300     311.4725   -1503.7101    492.70174    394.65034     200.0023    37330.719 
   81400    304.40562   -1457.5965    470.39795    386.56769   -135.16312    37330.719 
   81500    299.57064   -1457.2893    468.12911    362.78602   -208.79866    37330.719 
   81600    309.68838   -1436.9195    485.95851    446.64607   -18.065596    37330.719 
   81700    298.85941   -1453.0791    445.10493    340.76236   -426.62307    37330.719 
   81800    309.06452   -1438.8743    465.83212    421.74939   -442.56136    37330.719 
   81900    292.27335   -1445.0169    454.56951    328.56662    -611.5641    37330.719 
   82000    298.34023   -1433.6205    484.71801    397.49097    317.77621    37330.719 
   82100    302.49906    -1449.515    476.20263    391.84972   -33.781666    37330.719 
   82200    290.51292   -1462.9995    455.39234    303.46208    43.059505    37330.719 
   82300    296.65808   -1440.5532    467.30291    365.55167   -59.524556    37330.719 
   82400    314.51856    -1426.522    460.09841    452.98178   -57.953482    37330.719 
   82500    305.02705   -1431.2213    489.67202    435.02151    352.59463    37330.719 
   82600    303.88484   -1447.9045    479.21312    402.72463    153.98786    37330.719 
   82700    306.73745   -1449.0912    459.52829    394.72676    271.92028    37330.719 
   82800    297.72102    -1447.775    455.02078    350.84479     52.32997    37330.719 
   82900    292.83496   -1470.8777    478.74754     329.4183   -191.75857    37330.719 
   83000    283.88333   -1468.8574    454.37613    266.66899   -446.65815    37330.719 
   83100    305.47339    -1494.228    486.17249     370.5295   -332.85917    37330.719 
   83200    298.86988   -1500.3836    478.81863    327.21874    385.14445    37330.719 
   83300    297.98883   -1497.0398      462.439    310.20683    121.41148    37330.719 
   83400    306.72918   -1480.9573    457.99427    361.28927    495.66094    37330.719 
   83500    310.76236   -1480.8773     467.2295    388.80606   -104.22029    37330.719 
   83600    302.68067   -1452.9779    471.08415    384.08786   -253.60591    37330.719 
   83700    295.84814   -1448.0988    461.88529    348.93332   -58.946156    37330.719 
   83800    297.11122   -1408.3501    475.10744    407.60432    188.60916    37330.719 
   83900    294.64442    -1461.616    472.74366    340.84215    562.99091    37330.719 
   84000    291.88657    -1465.526    480.37827    332.12075    356.49471    37330.719 
   84100    305.79397   -1437.9284    459.57887    401.68227    451.88535    37330.719 
   84200    299.91673   -1427.9867    472.02357    397.54497    452.61152    37330.719 
   84300    300.84243   -1441.9597    465.29102    381.01707    238.60215    37330.719 
   84400    303.80345   -1455.7404    465.56402    380.87227    279.02159    37330.719 
   84500    287.25201   -1487.1876    476.44742    285.61272    274.92342    37330.719 
   84600    299.79897   -1481.4497    493.37541    364.90239   -135.85579    37330.719 
   84700    295.51009   -1516.7828    433.08547    249.92385   -39.851135    37330.719 
   84800    299.08135   -1448.8162    428.29872    329.22056   -128.04302    37330.719 
   84900    305.60184   -1466.5211    486.13706    398.78071    41.625696    37330.719 
   85000    298.18634   -1479.9525    467.76697    333.51343    243.09421    37330.719 
   85100    288.09579   -1487.2876    472.73506    285.60832    310.22124    37330.719 
   85200    308.98753   -1481.9489    447.51732    360.01255    33.824523    37330.719 
   85300    287.59631   -1490.8753    478.31535    285.34681    -297.6568    37330.719 
   85400    303.34688   -1459.6501    473.22472    382.56284   -155.65902    37330.719 
   85500    294.74364   -1496.0107    447.11144    281.26303   -247.45324    37330.719 
   85600    294.91432   -1477.3555    478.12068    331.69765    -384.5827    37330.719 
   85700    296.65595   -1473.0866    469.98663    335.69238   -485.12947    37330.719 
   85800    305.23176   -1468.6484    469.37329    378.21948   -352.51805    37330.719 
   85900    302.54946   -1461.8116    468.90328    372.48123   -98.678012    37330.719 
   86000    311.03573   -1492.2901    467.79167    379.18911    218.70527    37330.719 
   86100    304.95794   -1504.1004    488.26271    360.42113    301.03829    37330.719 
   86200    295.68084   -1485.6296     469.1064    317.86858   -55.356035    37330.719 
   86300    321.53423   -1465.3323    461.06095    446.79544    -74.52746    37330.719 
   86400    304.27851   -1454.5112    472.82468    391.50612   -434.24663    37330.719 
   86500    303.73146   -1465.4915     461.7538    366.98606   -587.17279    37330.719 
   86600    295.66833   -1451.0772    460.18777    343.44592   -517.76112    37330.719 
   86700    312.59995   -1513.6253    485.76447    382.88599    -139.6287    37330.719 
   86800    304.43966   -1497.7846    468.32086    344.45613    1.0796111    37330.719 
   86900    298.31463    -1458.222    432.86686    320.92282    112.17256    37330.719 
   87000    298.46261   -1470.6558    485.83432    362.12434   -614.72635    37330.719 
   87100     296.8879    -1450.417     425.4056    314.82782   -40.351711    37330.719 
   87200    308.15458   -1409.6173    450.33067    431.39849   -422.33748    37330.719 
   87300    305.44275   -1435.9391    462.51195    405.01961   -455.17547    37330.719 
   87400    302.29477    -1407.878    465.03435    421.39643   -195.84866    37330.719 
   87500    300.04233    -1432.653    471.74816    393.17008    219.07576    37330.719 
   87600    296.26548   -1447.2198    467.22552    357.03593    168.25691    37330.719 
   87700    304.05453   -1436.9334    479.50591    414.75431   -95.541868    37330.719 
   87800    295.61744   -1430.2993     465.9416      369.748   -383.96226    37330.719 
   87900     308.3937   -1446.6263    473.28267    418.42062   -252.08496    37330.719 
   88000    298.60697   -1471.8244    490.84174    366.61455    49.221168    37330.719 
   88100    303.60795    -1449.904    449.68124    369.94369    -330.6445    37330.719 
   88200    296.14415   -1421.4749    469.10912    384.11692   -571.20867    37330.719 
   88300    289.81646   -1452.0715    441.02532    296.87992   -409.53541    37330.719 
   88400    315.54294   -1493.2611    465.67128    396.43854   -207.99717    37330.719 
   88500    301.80382   -1410.5505    465.61718    417.09111   -207.40795    37330.719 
   88600    308.99703   -1448.9703     454.6209    400.13763   -19.311765    37330.719 
   88700    309.13335   -1436.0043    469.24382     428.3418   -132.42267    37330.719 
   88800    301.99878    -1481.404    478.04563    359.54594   -619.75321    37330.719 
   88900     301.5848   -1466.4019     455.9279    350.56209    210.14559    37330.719 
   89000    314.34789   -1451.9764    486.23121    452.89002   -393.48083    37330.719 
   89100    293.74865   -1439.4956    469.88044    356.05681    86.038225    37330.719 
   89200    293.69528   -1467.5658    475.99725    333.86257   -265.28826    37330.719 
   89300    303.85121   -1453.6295    457.06069    374.69543    148.31641    37330.719 
   89400    300.02201   -1419.1244    493.36482    428.22364    292.48603    37330.719 
   89500    296.62089   -1446.1595    473.27402    365.74865     656.6876    37330.719 
   89600    293.17834   -1490.2193    488.23417    321.11306     570.2841    37330.719 
   89700    306.64548   -1475.9592    477.69972    385.61512     217.5407    37330.719 
   89800    302.27768   -1476.5292    472.44368    360.07747   -231.97434    37330.719 
   89900    299.85832   -1507.1817    480.19718    326.26002   -154.19653    37330.719 
   90000    298.42323   -1510.8679    464.12112    300.02127   -315.28692    37330.719 
   90100    297.03078   -1549.2909    467.48279    258.67589   -181.65263    37330.719 
   90200    291.68312   -1462.7064    499.72562    353.36947   -55.045724    37330.719 
   90300    288.92612    -1481.414    493.22167    315.71573    -209.4417    37330.719 
   90400     306.2637    -1494.773    478.96962    366.34832   -457.91099    37330.719 
   90500     287.1897   -1480.9453    475.87935    291.00581   -492.09563    37330.719 
   90600    303.99052   -1474.9665     483.2585    380.18489   -224.57847    37330.719 
   90700    282.83426   -1515.6395    471.75949    232.53591   -296.89924    37330.719 
[...]
  984400    303.76268   -1493.1899    485.12807     362.8029    -20.39633    37330.719 
  984500    293.65116   -1509.1035    497.41206    313.54054   -464.49136    37330.719 
  984600     292.4707   -1474.7598    498.24405    343.38882    -297.5129    37330.719 
  984700    306.05584   -1489.0198     485.8726    378.06641   -323.04889    37330.719 
  984800    291.56257   -1484.3707    497.98121    329.41674   -787.23406    37330.719 
  984900    315.64764   -1488.2356    503.62846     439.8937   -563.89562    37330.719 
  985000    308.31998   -1510.6249    523.82171    404.62836    111.33717    37330.719 
  985100    298.97017   -1486.3146    481.82724    344.74898    136.45828    37330.719 
  985200    299.86655   -1472.8586    475.66086    356.08394    249.45387    37330.719 
  985300    305.60467   -1536.8164    494.56169    336.92277   -162.57981    37330.719 
  985400    298.54473   -1566.6361    461.05791    241.73815    246.75571    37330.719 
  985500    296.70202    -1524.912    500.60755    314.69585    749.87026    37330.719 
  985600    290.58293   -1521.4307    489.51966    279.47411    432.78625    37330.719 
  985700    304.06986   -1522.0066    488.04904    338.29344    967.87812    37330.719 
  985800    295.56119   -1466.9625    522.49741    389.38671    475.77872    37330.719 
  985900    301.23907     -1462.56    512.48178    409.39761    389.58142    37330.719 
  986000    301.75141     -1489.78    474.51942    346.52734    468.42697    37330.719 
  986100      301.675   -1516.0923    501.88204    347.23284   -67.135086    37330.719 
  986200    302.58994    -1512.239    491.92789    345.26102    3.3182863    37330.719 
  986300    296.22787   -1548.2213    477.90633     266.5455   -763.94061    37330.719 
  986400    289.64928   -1481.6925    501.80866    327.28789   -570.89539    37330.719 
  986500    297.79583   -1512.8225    483.90507    315.01914   -96.487919    37330.719 
  986600    302.86143   -1525.9818     480.0299    320.84551    410.87055    37330.719 
  986700    288.58186    -1525.345    489.80715    266.81661    426.85829    37330.719 
  986800    297.30496   -1512.1925    500.27592    329.80478    472.24439    37330.719 
  986900    286.95496   -1551.1867    489.34384    233.16954    140.06829    37330.719 
  987000    307.40561    -1528.136    503.85146    363.02051    375.96464    37330.719 
  987100    290.79955   -1478.3604    499.67095    333.67334    501.83012    37330.719 
  987200    305.26383   -1492.2112    507.35102     392.7791    550.20684    37330.719 
  987300    301.47707   -1520.2557    523.31763    363.61182    485.26422    37330.719 
  987400    293.96817   -1565.6721    474.07245    235.06291     208.5466    37330.719 
  987500    290.42111   -1521.4904    496.41499    285.57948    211.95876    37330.719 
  987600    309.62996   -1545.1184    509.79682    362.02185    497.08116    37330.719 
  987700    295.32642   -1521.2612    472.31482    283.84595    276.15002    37330.719 
  987800    296.91706   -1473.2319    521.31281    388.05166    114.79456    37330.719 
  987900    301.07315   -1512.5537    473.61551    319.78876    169.35348    37330.719 
  988000    295.02473   -1533.4465     498.1349    296.11921   -172.61885    37330.719 
  988100    301.70476   -1519.6695    492.27551     334.1834    148.37086    37330.719 
  988200    301.78284   -1526.5765     483.0795    318.43278    -18.64909    37330.719 
  988300    304.69781    -1523.656    503.30956    354.73843   -399.88288    37330.719 
  988400    302.52026   -1516.6056    496.31451    344.96659    230.91292    37330.719 
  988500    299.93774    -1519.584    483.60744     317.6264   -224.23658    37330.719 
  988600    304.46479   -1473.8924    471.41972    371.56066   -17.208067    37330.719 
  988700    289.12722   -1476.1904    480.65863     309.2839   -231.25701    37330.719 
  988800     301.3378   -1515.6161    485.58886    329.89403    100.72894    37330.719 
  988900    295.65545   -1496.0265    517.07332    355.32404    106.28971    37330.719 
  989000    294.84967   -1519.4856     478.0641    289.21921   -306.88225    37330.719 
  989100    297.80157   -1581.2337    471.71938    234.44824   -711.84751    37330.719 
  989200     295.1571   -1556.3826    486.43092    262.07649   -892.93507    37330.719 
  989300    301.09102   -1574.4695    509.42064    293.75877   -625.53241    37330.719 
  989400    300.11645   -1533.4501    500.35051    321.30987   -401.28899    37330.719 
  989500    303.71981   -1511.4642    465.41417    324.62117   -417.46605    37330.719 
  989600    286.44348   -1524.1977    481.25354    249.75997   -882.29256    37330.719 
  989700    291.94713   -1519.7751    457.96366    255.73035   -311.34701    37330.719 
  989800    298.70297   -1525.4084    493.29965     315.9217   -130.11666    37330.719 
  989900    302.72036   -1512.6068    482.26947     335.8234    516.62695    37330.719 
  990000    306.92335   -1469.6873     489.3514     404.7928    611.38606    37330.719 
  990100    301.22478   -1512.2114    485.78907    332.98891    763.21536    37330.719 
  990200    306.25694   -1479.6188    499.19693    401.69929    846.14752    37330.719 
  990300    296.03633   -1515.0555    483.07234    304.01292    425.36845    37330.719 
  990400    295.99173   -1549.9717     494.3267    280.14981    311.54396    37330.719 
  990500    296.41441   -1540.5314    461.97934    259.15027    306.21096    37330.719 
  990600    297.21614   -1574.7593    490.33077    256.89196    33.948257    37330.719 
  990700    300.93859   -1551.2934    477.98244    284.80874     262.6671    37330.719 
  990800    305.22721   -1524.8969    490.00312    342.58023    1058.6773    37330.719 
  990900    294.56248   -1537.6948    508.98479    300.63467    191.10271    37330.719 
  991000    298.09545   -1504.1774    501.95172     343.0631   -566.07517    37330.719 
  991100    296.57047   -1477.9251    494.16662    354.64813   -449.84836    37330.719 
  991200    292.28586   -1510.3291    514.92282    323.66414   -718.95501    37330.719 
  991300    299.61789   -1528.9531     484.7185     307.9249   -514.81463    37330.719 
  991400    308.61383   -1503.6138    475.07358    364.21746   -504.35696    37330.719 
  991500    314.44977   -1502.9373    483.52245    399.68012   -470.43759    37330.719 
  991600     291.5393   -1498.1627    503.50066    321.03922   -65.847921    37330.719 
  991700    298.64632   -1483.9048    506.49123    370.36131   -441.39354    37330.719 
  991800    300.51887   -1510.5148     503.2627    348.97346   -682.36956    37330.719 
  991900    297.33294   -1448.4466    506.47195    399.87296   -332.01051    37330.719 
  992000    310.85758   -1479.5793    512.74192     436.0462   -130.89952    37330.719 
  992100    301.44456   -1520.1399    484.87158    325.13483    75.956442    37330.719 
  992200    291.29351   -1475.1675    516.45275    355.87727    239.44661    37330.719 
  992300     301.6866   -1527.9218    470.20272    303.77636    349.38094    37330.719 
  992400    298.54952   -1532.5767    480.08739    294.84873    34.647718    37330.719 
  992500     311.1428   -1527.0041    481.38135    358.54807    430.90707    37330.719 
  992600    305.56456   -1532.9043    493.97134    340.06351    -23.55577    37330.719 
  992700     292.6024   -1502.3786    494.60992     312.7303   -374.03636    37330.719 
  992800    306.33984   -1499.1755    496.66176    379.98156   -48.135643    37330.719 
  992900    296.75436   -1448.1649    481.64185    372.71347   -415.31278    37330.719 
  993000    299.77793   -1516.6657    479.07176    315.28778   -685.92693    37330.719 
  993100    313.28718   -1484.4907    498.19625     427.5538     233.4316    37330.719 
  993200    307.22514   -1469.0332    490.31613    407.77347    518.51656    37330.719 
  993300    299.50415   -1455.1203    475.98028    372.50619   -846.09458    37330.719 
  993400    292.60648   -1474.2016    466.02278    312.33853   -1029.2814    37330.719 
  993500    293.08553    -1439.157    476.36179     359.8841   -435.28271    37330.719 
  993600    299.95738   -1472.2112     494.2432    375.72358   -202.05918    37330.719 
  993700    293.43948   -1413.5986    474.52256     385.2006   -212.59505    37330.719 
  993800    295.09318   -1457.6327    493.36477    367.47178   -379.49907    37330.719 
  993900     291.7074   -1528.6574    487.60548    275.40793    53.725861    37330.719 
  994000    294.76628   -1525.5722    459.38569    264.07798   -462.40242    37330.719 
  994100    300.70337   -1506.7664    497.60323    347.89508     -791.285    37330.719 
  994200    295.57912   -1468.2364    522.18264    387.87892   -229.41478    37330.719 
  994300    285.67511   -1522.4887    478.01345    244.76122     -573.248    37330.719 
  994400    300.33585   -1516.9305     497.8694    336.33843    254.99412    37330.719 
  994500    308.55072   -1492.0325    475.22246     375.6628    254.59929    37330.719 
  994600    296.86051   -1470.4162    495.21658    364.51596   -58.960701    37330.719 
  994700    304.34197   -1460.9694    484.20695    396.71649   -230.48598    37330.719 
  994800     305.8512   -1466.7985    489.21107    402.70258   -416.42796    37330.719 
  994900    287.62451   -1501.5832    473.13658    269.58744   -1040.2518    37330.719 
  995000    297.62203   -1449.6605    490.37137    383.86317     534.4847    37330.719 
  995100    298.28928   -1512.7125     481.8025     315.2535    1009.2689    37330.719 
  995200    309.33352     -1478.04    486.80498    404.77056     856.6353    37330.719 
  995300    305.45692   -1477.0597    502.53747    403.98848    757.22332    37330.719 
  995400    293.34767   -1552.7367    496.61102    267.73659    660.89717    37330.719 
  995500    306.35946   -1514.9646    480.65467    348.27389    25.259325    37330.719 
  995600    307.57949   -1471.2777    480.09075    396.90278      240.754    37330.719 
  995700    303.29256   -1488.7422    469.64998    349.65088    66.569891    37330.719 
  995800    306.46211   -1504.2776    505.19778    383.96727    679.52906    37330.719 
  995900    301.85951   -1496.8229    492.06599    357.51889    62.771661    37330.719 
  996000    303.27507   -1426.9409    484.66416    426.38744   -263.98281    37330.719 
  996100    280.89594   -1478.1813    458.99972    248.48671    -211.9159    37330.719 
  996200     299.8451    -1430.222    501.11835    424.08121    120.02875    37330.719 
  996300    295.95838   -1434.0256    472.68254    374.30123   -389.86694    37330.719 
  996400    308.86266   -1472.2603    458.14175     379.7621    349.07073    37330.719 
  996500    309.96973   -1471.3918    481.36578    408.85074    138.39052    37330.719 
  996600    292.64608   -1421.5927    488.11437    387.21772    90.020171    37330.719 
  996700    306.31898   -1431.7087    501.13006    451.82248    47.950071    37330.719 
  996800     295.3379   -1477.0773    493.39883    349.16561   -31.606387    37330.719 
  996900    301.94044   -1457.9936    485.70155    390.34897    311.00905    37330.719 
  997000     294.6805   -1440.1477    476.59607    366.32574    712.33862    37330.719 
  997100    302.98837   -1420.1736    510.79526    457.99199    284.49103    37330.719 
  997200    310.71766    -1421.529    478.79076    459.51395    265.31233    37330.719 
  997300    293.54677   -1440.5569    463.27366    347.47763    118.02759    37330.719 
  997400    303.57792     -1486.99    503.49839    386.53924    202.37408    37330.719 
  997500    296.82048   -1446.0924    485.93518    379.37768   -243.80905    37330.719 
  997600    302.73863   -1406.3056    482.06749    442.00513   -423.61979    37330.719 
  997700     296.8013   -1461.2971    470.19398    348.34527   -570.40936    37330.719 
  997800    307.87743   -1499.0612    492.84855    383.22165   -128.08525    37330.719 
  997900    307.50058   -1462.5453    484.70152    409.88982    21.651151    37330.719 
  998000     297.0342   -1499.9003    486.58652     327.1857    143.52995    37330.719 
  998100    305.86424   -1459.5999    488.71209    409.46109    351.95897    37330.719 
  998200    298.47395   -1510.8551    491.38545    327.52728    15.567216    37330.719 
  998300    308.98705   -1456.7483     494.5458     432.2395   -190.42085    37330.719 
  998400    300.48613   -1455.4408    489.67256    390.30954    26.648168    37330.719 
  998500     304.3984   -1485.1661    478.53099     367.0986    163.37398    37330.719 
  998600     300.9881   -1440.9879    483.21345    400.56872    250.72709    37330.719 
  998700    300.51653   -1491.9066    472.29112    336.59949   -40.328526    37330.719 
  998800    305.34606   -1520.9575    482.01952    339.07243   -94.798817    37330.719 
  998900    309.36878   -1507.3398    472.18081    361.00578    123.36824    37330.719 
  999000    301.86898    -1508.038    468.06601    322.34659    304.14498    37330.719 
  999100    306.01845   -1493.2688    484.22972    372.00576    172.86649    37330.719 
  999200     308.7472   -1486.2959    483.21398    390.27764    702.64789    37330.719 
  999300    306.86635   -1483.5432    483.07277    384.40098    382.89891    37330.719 
  999400    293.19707   -1467.1632    511.14932    367.16877   -437.09581    37330.719 
  999500    301.66801   -1474.0453    461.55083    348.91705   -119.49206    37330.719 
  999600    293.47796   -1498.0492    462.77957    289.18068    370.18238    37330.719 
  999700    297.27923   -1476.9879    466.74299    331.36037   -414.92644    37330.719 
  999800    306.78415   -1433.6712    497.45911    448.28832   -85.916259    37330.719 
  999900    299.80316   -1447.4528    461.33077    366.87354   -374.30343    37330.719 
 1000000    310.33461   -1478.1208    496.34822    418.75086    134.31308    37330.719 
 1000100    300.64701   -1475.8384      479.339    360.30444   -60.498449    37330.719 
 1000200    305.14978   -1478.4767     470.4045    369.05238   -47.580168    37330.719 
 1000300    312.19446   -1527.3987    471.25161    352.76979   -205.95527    37330.719 
 1000400    294.62195   -1487.7201    485.76955    327.66247    51.641192    37330.719 
 1000500    297.91245   -1448.9908    501.74794    397.22011   -274.38977    37330.719 
 1000600    306.69137   -1454.6968    500.20081    429.58572   -338.39341    37330.719 
 1000700    295.38403   -1457.6517    489.59893    364.99955   -152.06921    37330.719 
 1000800    301.00855   -1442.8382    494.32482    409.92203    396.71562    37330.719 
 1000900    293.27692   -1408.3311    479.87146    395.08339    122.67781    37330.719 
 1001000    300.95798   -1425.3297    513.44997    446.32746    130.90408    37330.719 
 1001100    289.40544   -1455.2419    467.00442    317.83372   -44.132472    37330.719 
 1001200    303.79925   -1427.8211    503.52653    446.73522    512.32884    37330.719 
 1001300    303.30544   -1503.6585    484.47337    349.61611    142.92935    37330.719 
 1001400    312.78445   -1461.3151    499.22009    449.48451    290.59937    37330.719 
 1001500    302.27949   -1481.4078     503.7104    386.47371    590.99543    37330.719 
 1001600    297.19508   -1490.7092    488.63304    339.14931    562.58383    37330.719 
 1001700    301.20789   -1458.8986    482.59279     383.0293    32.760289    37330.719 
 1001800    304.24797   -1426.2389    503.53719    450.35304    152.82619    37330.719 
 1001900    315.86321    -1436.913    500.95365    489.51444    114.51722    37330.719 
 1002000     296.7478   -1438.4989    484.65013    385.35817    649.24255    37330.719 
 1002100    298.44509   -1449.1988     496.2649     393.9328   -61.481179    37330.719 
 1002200    296.66014   -1453.0795    487.20429    372.93606   -130.59537    37330.719 
 1002300    289.17218   -1463.1662    475.25012    317.10247   -294.93611    37330.719 
 1002400     282.9024   -1486.0039    446.23184    236.95127   -190.08907    37330.719 
 1002500    297.19561   -1468.3961    473.27906    346.11079   -458.85296    37330.719 
 1002600      300.798    -1505.008    481.35155    333.82881    123.07254    37330.719 
 1002700    295.84677   -1485.1521    475.42207    325.41062    14.931275    37330.719 
 1002800     294.0985   -1491.3118    504.74287    340.68181   -121.03376    37330.719 
 1002900    304.26888   -1428.8182    491.65384    435.98474   -723.18229    37330.719 
 1003000     297.5569   -1445.2956    486.17655    383.73927   -490.28882    37330.719 
 1003100     303.6786   -1482.1359    465.00302    353.35236   -844.00816    37330.719 
 1003200    300.75468   -1469.3118    462.12473    350.10268   -218.18705    37330.719 
 1003300    294.94267    -1443.617    469.39494    356.83841    243.85588    37330.719 
 1003400    289.87131    -1424.254    467.46847    351.38817   -52.470741    37330.719 
 1003500    301.89617   -1458.0769    486.14627     390.5106    90.020155    37330.719 
 1003600    300.47822   -1481.8573    485.62221    359.80704   -28.093045    37330.719 
 1003700    291.67096   -1460.5935     472.5329    328.23479     408.1457    37330.719 
 1003800    302.34488   -1441.2598    509.69513    432.90162   -226.30148    37330.719 
 1003900    298.22971   -1445.5605    474.66364    374.99783    34.470773    37330.719 
 1004000    300.14311   -1438.8432    488.36014    404.04666   -398.13481    37330.719 
 1004100    295.98622   -1476.6444    488.96034    348.08589   -341.94961    37330.719 
 1004200    299.51144   -1456.9044    498.85633    393.63097    98.458951    37330.719 
 1004300    289.23126   -1496.9826    488.17411    296.47669    59.474139    37330.719 
 1004400    291.91215   -1486.1471    474.50592     305.7427   -95.425431    37330.719 
 1004500    303.35747   -1445.8943    500.61739    423.75907     441.1173    37330.719 
 1004600    301.26218   -1478.5408     476.1158    357.15511    111.88813    37330.719 
 1004700    302.91559    -1479.805    483.24058    370.47742   -314.47521    37330.719 
 1004800    304.38103   -1471.5014    483.41877    385.57261   -905.96925    37330.719 
 1004900    306.37585   -1463.1091    487.63125    407.17992   -1137.2461    37330.719 
 1005000    297.76277   -1481.3946    458.69417    321.08696   -1268.3535    37330.719 
 1005100    303.37459   -1431.7556    503.90238       441.26   -873.32384    37330.719 
 1005200    313.29362   -1433.6768    454.53783    434.73832   -417.83091    37330.719 
 1005300    300.87796   -1483.4996    484.48266     358.8292   -833.75805    37330.719 
 1005400    306.28784   -1490.0296    476.24642    368.47741   -519.99317    37330.719 
 1005450    294.18237   -1482.1274    484.82907    330.33098    672.94979    37330.719 
Loop time of 596.679 on 32 procs for 1000000 steps with 1515 atoms

Performance: 144.802 ns/day, 0.166 hours/ns, 1675.944 timesteps/s
100.0% CPU use with 32 MPI tasks x no OpenMP threads

MPI task timing breakdown:
Section |  min time  |  avg time  |  max time  |%varavg| %total
---------------------------------------------------------------
Pair    | 249.28     | 274.84     | 304.4      |  78.1 | 46.06
Bond    | 1.4373     | 1.5744     | 1.7481     |   5.8 |  0.26
Neigh   | 38.712     | 38.789     | 38.864     |   0.9 |  6.50
Comm    | 239.59     | 269.14     | 294.85     |  79.0 | 45.11
Output  | 0.39179    | 0.41085    | 0.87668    |  13.1 |  0.07
Modify  | 8.9704     | 9.1378     | 9.4184     |   3.2 |  1.53
Other   |            | 2.787      |            |       |  0.47

Nlocal:        47.3438 ave          75 max           6 min
Histogram: 1 0 2 3 5 2 9 3 6 1
Nghost:        2010.84 ave        2144 max        1868 min
Histogram: 5 7 4 0 0 0 0 1 7 8
Neighs:        5321.72 ave        9517 max         438 min
Histogram: 1 0 5 4 4 6 2 6 1 3

Total # of neighbors = 170295
Ave neighs/atom = 112.40594
Ave special neighs/atom = 2.0303630
Neighbor list builds = 49829
Dangerous builds = 0
The system volume is 37330.7192907333
Lattice vectors
33.4212061568921 0 0
0 33.4212061568921 0
0 0 33.4212061568921
Total wall time: 0:10:02
